  MPI-parallelism will be employed.
------------------------------------------------------------
          Invoking FHI-aims ...
          Version 180607
          Git rev. (modified): 6724847 Fix JSON memory corruption in scf_solver
          Compiled on 2018/06/27 at 16:00:31 on host coe.psc.edu.

          When using FHI-aims, please cite the following reference:

          Volker Blum, Ralf Gehrke, Felix Hanke, Paula Havu,
          Ville Havu, Xinguo Ren, Karsten Reuter, and Matthias Scheffler,
          'Ab Initio Molecular Simulations with Numeric Atom-Centered Orbitals',
          Computer Physics Communications 180, 2175-2196 (2009)

          For any questions about FHI-aims, please visit the aimsclub website
          with its forums and wiki. Contributions to both the forums and the
          wiki are warmly encouraged - they are for you, and everyone is welcome there.

------------------------------------------------------------



  Date     :  20210620, Time     :  162702.154
  Time zero on CPU 1             :   0.285186000000000E+00  s.
  Internal wall clock time zero  :           393438422.154  s.

  FHI-aims created a unique identifier for this run for later identification
  aims_uuid : 629C78FD-3072-46E5-AD8E-3C2E9920D16A

  Using       56 parallel tasks.
  Task        0 on host d021 reporting.
  Task        1 on host d021 reporting.
  Task        2 on host d021 reporting.
  Task        3 on host d021 reporting.
  Task        4 on host d021 reporting.
  Task        5 on host d021 reporting.
  Task        6 on host d021 reporting.
  Task        7 on host d021 reporting.
  Task        8 on host d021 reporting.
  Task        9 on host d021 reporting.
  Task       10 on host d021 reporting.
  Task       11 on host d021 reporting.
  Task       12 on host d021 reporting.
  Task       13 on host d021 reporting.
  Task       14 on host d021 reporting.
  Task       15 on host d021 reporting.
  Task       16 on host d021 reporting.
  Task       17 on host d021 reporting.
  Task       18 on host d021 reporting.
  Task       19 on host d021 reporting.
  Task       20 on host d021 reporting.
  Task       21 on host d021 reporting.
  Task       22 on host d021 reporting.
  Task       23 on host d021 reporting.
  Task       24 on host d021 reporting.
  Task       25 on host d021 reporting.
  Task       26 on host d021 reporting.
  Task       27 on host d021 reporting.
  Task       28 on host d021 reporting.
  Task       29 on host d021 reporting.
  Task       30 on host d021 reporting.
  Task       31 on host d021 reporting.
  Task       32 on host d021 reporting.
  Task       33 on host d021 reporting.
  Task       34 on host d021 reporting.
  Task       35 on host d021 reporting.
  Task       36 on host d021 reporting.
  Task       37 on host d021 reporting.
  Task       38 on host d021 reporting.
  Task       39 on host d021 reporting.
  Task       40 on host d021 reporting.
  Task       41 on host d021 reporting.
  Task       42 on host d021 reporting.
  Task       43 on host d021 reporting.
  Task       44 on host d021 reporting.
  Task       45 on host d021 reporting.
  Task       46 on host d021 reporting.
  Task       47 on host d021 reporting.
  Task       48 on host d021 reporting.
  Task       49 on host d021 reporting.
  Task       50 on host d021 reporting.
  Task       51 on host d021 reporting.
  Task       52 on host d021 reporting.
  Task       53 on host d021 reporting.
  Task       54 on host d021 reporting.
  Task       55 on host d021 reporting.

  Performing system and environment tests:
  *** Environment variable OMP_NUM_THREADS is not set
  *** For performance reasons you might want to set it to 1
  | Stacksize not measured: no C compiler
  | Checking for scalapack...
  | Testing pdtran()...
  | All pdtran() tests passed.

  Obtaining array dimensions for all initial allocations:
  
  -----------------------------------------------------------------------
  Parsing control.in (first pass over file, find array dimensions only).
  The contents of control.in will be repeated verbatim below
  unless switched off by setting 'verbatim_writeout .false.' .
  in the first line of control.in .
  -----------------------------------------------------------------------
  
  #===============================================================================
  # FHI-aims file: ./Runs/es/control.in
  # Created using the Atomic Simulation Environment (ASE)
  # Mon Jan 13 16:04:38 2020
  #===============================================================================
  xc                                 pbe
  relativistic                       zora scalar 1e-12
  occupation_type                    gaussian 0.0001
  load_balancing                     .true.
  KS_method                          scalapack_fast
  mixer                              pulay
  n_max_pulay                        5
  charge_mix_param                   0.4
  sc_accuracy_etot                   1e-6
  sc_accuracy_eev                    1e-4
  sc_accuracy_rho                    1e-6
  sc_iter_limit                      100
  prodbas_threshold                  1e-4
  basis_threshold                    1e-5
  override_illconditioning           .true.
  use_logsbt                         .true.
  spin                               none
  charge                             0
  #===============================================================================
  
  ################################################################################
  #
  #  FHI-aims code project
  # Volker Blum, Fritz Haber Institute Berlin, 2009
  #
  #  Suggested "tight" defaults for H atom (to be pasted into control.in file)
  #
  ################################################################################
    species        H
  #     global species definitions
      nucleus             1
      mass                1.00794
  #
      l_hartree           6
  #
      cut_pot             4.0  2.0  1.0
      basis_dep_cutoff    1e-4
  #
      radial_base         24 7.0
      radial_multiplier   2
      angular_grids       specified
        division   0.1930   50
        division   0.3175  110
        division   0.4293  194
        division   0.5066  302
        division   0.5626  434
  #      division   0.5922  590
  #      division   0.6227  974
  #      division   0.6868 1202
  #      outer_grid  770
        outer_grid  434
  ################################################################################
  #
  #  Definition of "minimal" basis
  #
  ################################################################################
  #     valence basis states
      valence      1  s   1.
  #     ion occupancy
      ion_occ      1  s   0.5
  ################################################################################
  #
  #  Suggested additional basis functions. For production calculations,
  #  uncomment them one after another (the most important basis functions are
  #  listed first).
  #
  #  Basis constructed for dimers: 0.5 A, 0.7 A, 1.0 A, 1.5 A, 2.5 A
  #
  ################################################################################
  #  "First tier" - improvements: -1014.90 meV to -62.69 meV
       hydro 2 s 2.1
       hydro 2 p 3.5
  #  "Second tier" - improvements: -12.89 meV to -1.83 meV
       hydro 1 s 0.85
       hydro 2 p 3.7
       hydro 2 s 1.2
       hydro 3 d 7
  #  "Third tier" - improvements: -0.25 meV to -0.12 meV
  #     hydro 4 f 11.2
  #     hydro 3 p 4.8
  #     hydro 4 d 9
  #     hydro 3 s 3.2
  ################################################################################
  #
  # For methods that use the localized form of the "resolution of identity" for
  # the two-electron Coulomb operator (RI_method LVL), particularly Hartree-Fock and
  # hybrid density functional calculations, the highest accuracy can be obtained by
  # uncommenting the line beginning with "for_aux"  below, thus adding an extra g radial
  # function to the construction of the product basis set for the expansion.
  # See Ref. New J. Phys. 17, 093020 (2015) for more information, particularly Figs. 1 and 6.
  #
  ################################################################################
  #
  # for_aux hydro 5 g 6.0
  ################################################################################
  #
  #  FHI-aims code project
  # Volker Blum, Fritz Haber Institute Berlin, 2009
  #
  #  Suggested "tight" defaults for C atom (to be pasted into control.in file)
  #
  ################################################################################
    species        C
  #     global species definitions
      nucleus             6
      mass                12.0107
  #
      l_hartree           6
  #
      cut_pot             4.0  2.0  1.0
      basis_dep_cutoff    1e-4
  #
      radial_base         34 7.0
      radial_multiplier   2
      angular_grids specified
        division   0.2187   50
        division   0.4416  110
        division   0.6335  194
        division   0.7727  302
        division   0.8772  434
  #      division   0.9334  590
  #      division   0.9924  770
  #      division   1.0230  974
  #      division   1.5020 1202
  #     outer_grid  974
        outer_grid  434
  ################################################################################
  #
  #  Definition of "minimal" basis
  #
  ################################################################################
  #     valence basis states
      valence      2  s   2.
      valence      2  p   2.
  #     ion occupancy
      ion_occ      2  s   1.
      ion_occ      2  p   1.
  ################################################################################
  #
  #  Suggested additional basis functions. For production calculations,
  #  uncomment them one after another (the most important basis functions are
  #  listed first).
  #
  #  Constructed for dimers: 1.0 A, 1.25 A, 1.5 A, 2.0 A, 3.0 A
  #
  ################################################################################
  #  "First tier" - improvements: -1214.57 meV to -155.61 meV
       hydro 2 p 1.7
       hydro 3 d 6
       hydro 2 s 4.9
  #  "Second tier" - improvements: -67.75 meV to -5.23 meV
       hydro 4 f 9.8
       hydro 3 p 5.2
       hydro 3 s 4.3
       hydro 5 g 14.4
       hydro 3 d 6.2
  #  "Third tier" - improvements: -2.43 meV to -0.60 meV
  #     hydro 2 p 5.6
  #     hydro 2 s 1.4
  #     hydro 3 d 4.9
  #     hydro 4 f 11.2
  #  "Fourth tier" - improvements: -0.39 meV to -0.18 meV
  #     hydro 2 p 2.1
  #     hydro 5 g 16.4
  #     hydro 4 d 13.2
  #     hydro 3 s 13.6
  #     hydro 4 f 17.6
  #  Further basis functions - improvements: -0.08 meV and below
  #     hydro 3 s 2
  #     hydro 3 p 6
  #     hydro 4 d 20
  ################################################################################
  #
  # For methods that use the localized form of the "resolution of identity" for
  # the two-electron Coulomb operator (RI_method LVL), particularly Hartree-Fock and
  # hybrid density functional calculations, the highest accuracy can be obtained by
  # uncommenting the line beginning with "for_aux"  below, thus adding an extra g radial
  # function to the construction of the product basis set for the expansion.
  # See Ref. New J. Phys. 17, 093020 (2015) for more information, particularly Figs. 1 and 6.
  #
  ################################################################################
  #
  # for_aux hydro 5 g 6.0
  
  -----------------------------------------------------------------------
  Completed first pass over input file control.in .
  -----------------------------------------------------------------------
  
  
  -----------------------------------------------------------------------
  Parsing geometry.in (first pass over file, find array dimensions only).
  The contents of geometry.in will be repeated verbatim below
  unless switched off by setting 'verbatim_writeout .false.' .
  in the first line of geometry.in .
  -----------------------------------------------------------------------
  
  #=======================================================
  # FHI-aims file: geometry.in
  # Created using the Atomic Simulation Environment (ASE)
  # Sun Jun 20 15:47:01 2021
  #=======================================================
  atom 28.6201480000000004 21.7117989999999992 53.1325170000000000 H
  atom 28.9207929999999998 21.7308270000000014 54.1782960000000031 C
  atom 28.2017109999999995 22.4075360000000003 55.0898919999999990 C
  atom 30.0964349999999996 20.9983600000000017 54.5479479999999981 C
  atom 27.3000049999999987 22.9475760000000015 54.7926450000000003 H
  atom 28.5703829999999996 22.4343299999999992 56.4648070000000004 C
  atom 30.8337800000000009 20.2518500000000010 53.6239169999999987 C
  atom 30.4982080000000018 21.0210970000000010 55.9044110000000032 C
  atom 27.8353220000000015 23.1295600000000015 57.4281509999999997 C
  atom 29.7357529999999990 21.7376269999999998 56.8647459999999967 C
  atom 30.4799460000000018 20.2041080000000015 52.1683710000000005 C
  atom 31.9945829999999987 19.6113439999999990 54.0344860000000011 C
  atom 31.6612949999999991 20.3144780000000011 56.3085620000000020 C
  atom 26.9298490000000008 23.6538579999999996 57.1264919999999989 H
  atom 28.2416599999999995 23.1401240000000001 58.7366770000000002 C
  atom 30.1386670000000017 21.7540179999999985 58.2173990000000003 C
  atom 29.7106420000000000 19.1619889999999984 51.5510129999999975 C
  atom 31.0403729999999989 21.1747170000000011 51.3933639999999983 C
  atom 32.5741859999999974 19.0466529999999992 53.3034040000000005 H
  atom 32.4020629999999983 19.6437649999999984 55.3512360000000001 C
  atom 32.0265429999999967 20.3393590000000017 57.6957129999999978 C
  atom 27.6589759999999991 23.6978949999999990 59.4705670000000026 H
  atom 29.3693629999999999 22.4694399999999987 59.1404270000000025 C
  atom 31.3040360000000000 21.0240180000000016 58.5934700000000035 C
  atom 29.6809660000000015 19.1392559999999996 50.1205390000000008 C
  atom 28.9687319999999993 18.1508199999999995 52.2524110000000022 C
  atom 30.9559089999999983 21.1717990000000000 49.9915719999999979 C
  atom 31.6143830000000001 21.9652950000000011 51.8773430000000033 H
  atom 33.3051389999999969 19.1152170000000012 55.6526939999999968 H
  atom 32.9120410000000021 19.7784210000000016 57.9985750000000024 H
  atom 29.6710349999999998 22.4692499999999988 60.1870079999999987 H
  atom 31.5910989999999998 21.0362250000000017 59.6458670000000026 H
  atom 28.9915599999999998 18.1092669999999991 49.4478229999999996 C
  atom 30.3155840000000012 20.1590769999999999 49.3786259999999970 C
  atom 28.3135680000000001 17.1883780000000002 51.5325610000000012 C
  atom 28.7861079999999987 18.1488499999999995 53.7372390000000024 C
  atom 31.4469400000000014 21.9664840000000012 49.4327809999999985 H
  atom 28.3386789999999991 17.1607850000000006 50.1257540000000006 C
  atom 28.9985229999999987 18.1177680000000016 48.3555130000000020 H
  atom 30.2816839999999985 20.0996950000000005 48.2897249999999971 H
  atom 27.7322530000000000 16.4360329999999983 52.0662809999999965 H
  atom 27.6595459999999989 18.7632939999999984 54.3144830000000027 C
  atom 29.7220559999999985 17.5497669999999992 54.5710139999999981 C
  atom 27.7943460000000009 16.3748639999999988 49.6038679999999985 H
  atom 26.5934789999999985 19.3154040000000009 53.5368690000000029 C
  atom 27.5705169999999988 18.8716359999999987 55.7303160000000020 C
  atom 29.6318850000000005 17.6336410000000008 55.9435229999999990 C
  atom 30.5765080000000005 17.0419209999999985 54.1275509999999969 H
  atom 25.5593700000000013 19.9616889999999998 54.1103019999999972 C
  atom 26.6392489999999995 19.1996849999999988 52.4559909999999974 H
  atom 26.4930349999999990 19.5795509999999986 56.3314269999999979 C
  atom 28.5863629999999986 18.3209750000000007 56.5504510000000025 C
  atom 30.4076950000000004 17.1954549999999990 56.5668980000000019 H
  atom 24.7573079999999983 20.3734129999999993 53.4933449999999979 H
  atom 25.4771889999999992 20.1457189999999997 55.5231250000000003 C
  atom 26.4496620000000000 19.7502010000000006 57.7336209999999994 C
  atom 28.5076059999999991 18.5006580000000014 57.9614699999999985 C
  atom 24.4487880000000004 20.8653909999999989 56.1304549999999978 C
  atom 25.3961499999999987 20.4735230000000001 58.2954209999999975 C
  atom 27.4951849999999993 19.1853540000000002 58.5260779999999983 C
  atom 29.3057869999999987 18.0790959999999998 58.5762199999999993 H
  atom 23.6677280000000003 21.3100960000000015 55.5134979999999985 H
  atom 24.4191119999999984 21.0149469999999994 57.4973480000000023 C
  atom 25.3675010000000007 20.6064019999999992 59.3783049999999974 H
  atom 27.4570620000000005 19.3299279999999989 59.6059529999999995 H
  atom 23.6048369999999998 21.5820170000000005 57.9476299999999966 H
  
  -----------------------------------------------------------------------
  Completed first pass over input file geometry.in .
  -----------------------------------------------------------------------
  

  Basic array size parameters:
  | Number of species                 :        2
  | Number of atoms                   :       66
  | Max. basis fn. angular momentum   :        4
  | Max. atomic/ionic basis occupied n:        2
  | Max. number of basis fn. types    :        2
  | Max. radial fns per species/type  :        8
  | Max. logarithmic grid size        :     1277
  | Max. radial integration grid size :       69
  | Max. angular integration grid size:      434
  | Max. angular grid division number :        8
  | Radial grid for Hartree potential :     1277
  | Number of spin channels           :        1

------------------------------------------------------------
          Reading file control.in.
------------------------------------------------------------
  XC: Using PBE gradient-corrected functionals.
  Scalar relativistic treatment of kinetic energy: ZORA.
  Threshold value for ZORA:   0.100000E-11
  Occupation type: Gaussian broadening, width =   0.100000E-03 eV.
  Since 'load_balancing .true.' is present in control.in, automatically turning on 'use_local_index .true.'.
  Using load balancing for integrations.
  Kohn-Sham electronic structure solved by the ELSI library.
  Using pulay charge density mixing.
  Pulay mixing - number of memorized iterations:    5
  Charge density mixing - mixing parameter:     0.4000
  Convergence accuracy of total energy:  0.1000E-05
  Convergence accuracy of sum of eigenvalues:  0.1000E-03
  Convergence accuracy of self-consistent charge density:  0.1000E-05
  Maximum number of s.-c. iterations  :   100
  * Ignoring prodbas_threshold
  Threshold for basis singularities:  0.1000E-04
  override_illconditioning: Explicitly overriding any built-in checks for an ill-conditioned overlap matrix.
  *** WARNING: If you use this flag, you should really know what you are doing.
  *** DO NOT keep this flag set by default in all your control.in files.
  Using 1D integrations for auxiliary 2-center integrals.
  Spin treatment: No spin polarisation.
  Charge =   0.000000E+00: Neutral system requested explicitly.
 
  Reading configuration options for species H                   .
  | Found nuclear charge :   1.0000
  | Found atomic mass :    1.00794000000000      amu
  | Found l_max for Hartree potential  :   6
  | Found cutoff potl. onset [A], width [A], scale factor :    4.00000    2.00000    1.00000
  | Threshold for basis-dependent cutoff potential is   0.100000E-03
  | Found data for basic radial integration grid :    24 points, outermost radius =    7.000 A
  | Found multiplier for basic radial grid :   2
  | Found angular grid specification: user-specified.
  | Specified grid contains     6 separate shells.
  | Check grid settings after all constraints further below.
  | Found free-atom valence shell :  1 s   1.000
  | No ionic wave fns used. Skipping ion_occ.
  | Found hydrogenic basis function :  2 s   2.100
  | Found hydrogenic basis function :  2 p   3.500
  | Found hydrogenic basis function :  1 s   0.850
  | Found hydrogenic basis function :  2 p   3.700
  | Found hydrogenic basis function :  2 s   1.200
  | Found hydrogenic basis function :  3 d   7.000
  Species H                   : Missing cutoff potential type.
  Defaulting to exp(1/x)/(1-x)^2 type cutoff potential.
  Species H : No 'logarithmic' tag. Using default grid for free atom:
  | Default logarithmic grid data [bohr] : 0.1000E-03 0.1000E+03 0.1012E+01
  Species H : On-site basis accuracy parameter (for Gram-Schmidt orthonormalisation) not specified.
  Using default value basis_acc =  0.1000000E-03.
  Species H                   : Using default innermost maximum threshold i_radial=  2 for radial functions.
  Species H                   : Default cutoff onset for free atom density etc. : 0.40000000E+01 AA.
  Species H                   : Basic radial grid will be enhanced according to radial_multiplier =   2, to contain    49 grid points.
 
  Reading configuration options for species C                   .
  | Found nuclear charge :   6.0000
  | Found atomic mass :    12.0107000000000      amu
  | Found l_max for Hartree potential  :   6
  | Found cutoff potl. onset [A], width [A], scale factor :    4.00000    2.00000    1.00000
  | Threshold for basis-dependent cutoff potential is   0.100000E-03
  | Found data for basic radial integration grid :    34 points, outermost radius =    7.000 A
  | Found multiplier for basic radial grid :   2
  | Found angular grid specification: user-specified.
  | Specified grid contains     6 separate shells.
  | Check grid settings after all constraints further below.
  | Found free-atom valence shell :  2 s   2.000
  | Found free-atom valence shell :  2 p   2.000
  | No ionic wave fns used. Skipping ion_occ.
  | No ionic wave fns used. Skipping ion_occ.
  | Found hydrogenic basis function :  2 p   1.700
  | Found hydrogenic basis function :  3 d   6.000
  | Found hydrogenic basis function :  2 s   4.900
  | Found hydrogenic basis function :  4 f   9.800
  | Found hydrogenic basis function :  3 p   5.200
  | Found hydrogenic basis function :  3 s   4.300
  | Found hydrogenic basis function :  5 g  14.400
  | Found hydrogenic basis function :  3 d   6.200
  Species C                   : Missing cutoff potential type.
  Defaulting to exp(1/x)/(1-x)^2 type cutoff potential.
  Species C : No 'logarithmic' tag. Using default grid for free atom:
  | Default logarithmic grid data [bohr] : 0.1000E-03 0.1000E+03 0.1012E+01
  Species C : On-site basis accuracy parameter (for Gram-Schmidt orthonormalisation) not specified.
  Using default value basis_acc =  0.1000000E-03.
  Species C                   : Using default innermost maximum threshold i_radial=  2 for radial functions.
  Species C                   : Default cutoff onset for free atom density etc. : 0.40000000E+01 AA.
  Species C                   : Basic radial grid will be enhanced according to radial_multiplier =   2, to contain    69 grid points.
 
  Finished reading input file 'control.in'. Consistency checks are next.
 
  MPI_IN_PLACE appears to work with this MPI implementation.
  | Keeping use_mpi_in_place .true. (see manual).
  Target number of points in a grid batch is not set. Defaulting to  100
  Method for grid partitioning is not set. Defaulting to parallel hash+maxmin partitioning.
  Batch size limit is not set. Defaulting to    200
  By default, will store active basis functions for each batch.
  If in need of memory, prune_basis_once .false. can be used to disable this option.
  communication_type for Hartree potential was not specified.
  Defaulting to calc_hartree .
  Pulay mixer: Number of initial linear mixing iterations not set.
  Defaulting to    0 iterations.
  Work space size for distributed Hartree potential not set.
  Defaulting to   0.200000E+03 MB.
  Algorithm-dependent basis array size parameters:
  | n_max_pulay                         :        5
  Presetting      1001 iterations before the initial mixing cycle
  is restarted anyway using the sc_init_iter criterion / keyword.
  Presetting a factor      1.000 between actual scf density residual
  and density convergence criterion sc_accuracy_rho below which sc_init_iter
  takes no effect.
  Calculation of forces was not defined in control.in. No forces will be calculated.
  Geometry relaxation not requested: no relaxation will be performed.
  No accuracy limit for integral partition fn. given. Defaulting to  0.1000E-14.
  No threshold value for u(r) in integrations given. Defaulting to  0.1000E-05.
  No accuracy for occupation numbers given. Defaulting to  0.1000E-12.
  No threshold value for occupation numbers given. Defaulting to  0.0000E+00.
  No accuracy for fermi level given. Defaulting to  0.1000E-19.
  Maximum # of iterations to find E_F not set. Defaulting to  200.
  Will not use alltoall communication since running on < 1024 CPUs.
  partition_type (choice of integration weights) for integrals was not specified.
  | Using a version of the partition function of Stratmann and coworkers ('stratmann_sparse').
  | At each grid point, the set of atoms used to build the partition table is smoothly restricted to
  | only those atoms whose free-atom density would be non-zero at that grid point.
  Partitioning for Hartree potential was not defined. Using partition_type for integrals.
  | Adjusted default value of keyword multip_moments_threshold to:       0.10000000E-11
  | This value may affect high angular momentum components of the Hartree potential in periodic systems.
  No q(lm)/r^(l+1) cutoff set for long-range Hartree potential.
  | Using default value of  0.100000E-09 .
  | Verify using the multipole_threshold keyword.
  Defaulting to new monopole extrapolation.
  Density update method: automatic selection selected.
 * Warning: use_local_index and/or load_balancing needs packed_matrix_format = index
 * Changing the default setting to packed_matrix_format = index
------------------------------------------------------------


------------------------------------------------------------
          Reading geometry description geometry.in.
------------------------------------------------------------
  Input structure read successfully.
  The structure contains       66 atoms,  and a total of        276.000 electrons.

  Input geometry:
  | No unit cell requested.
  | Atomic structure:
  |       Atom                x [A]            y [A]            z [A]
  |    1: Species H            28.62014800       21.71179900       53.13251700
  |    2: Species C            28.92079300       21.73082700       54.17829600
  |    3: Species C            28.20171100       22.40753600       55.08989200
  |    4: Species C            30.09643500       20.99836000       54.54794800
  |    5: Species H            27.30000500       22.94757600       54.79264500
  |    6: Species C            28.57038300       22.43433000       56.46480700
  |    7: Species C            30.83378000       20.25185000       53.62391700
  |    8: Species C            30.49820800       21.02109700       55.90441100
  |    9: Species C            27.83532200       23.12956000       57.42815100
  |   10: Species C            29.73575300       21.73762700       56.86474600
  |   11: Species C            30.47994600       20.20410800       52.16837100
  |   12: Species C            31.99458300       19.61134400       54.03448600
  |   13: Species C            31.66129500       20.31447800       56.30856200
  |   14: Species H            26.92984900       23.65385800       57.12649200
  |   15: Species C            28.24166000       23.14012400       58.73667700
  |   16: Species C            30.13866700       21.75401800       58.21739900
  |   17: Species C            29.71064200       19.16198900       51.55101300
  |   18: Species C            31.04037300       21.17471700       51.39336400
  |   19: Species H            32.57418600       19.04665300       53.30340400
  |   20: Species C            32.40206300       19.64376500       55.35123600
  |   21: Species C            32.02654300       20.33935900       57.69571300
  |   22: Species H            27.65897600       23.69789500       59.47056700
  |   23: Species C            29.36936300       22.46944000       59.14042700
  |   24: Species C            31.30403600       21.02401800       58.59347000
  |   25: Species C            29.68096600       19.13925600       50.12053900
  |   26: Species C            28.96873200       18.15082000       52.25241100
  |   27: Species C            30.95590900       21.17179900       49.99157200
  |   28: Species H            31.61438300       21.96529500       51.87734300
  |   29: Species H            33.30513900       19.11521700       55.65269400
  |   30: Species H            32.91204100       19.77842100       57.99857500
  |   31: Species H            29.67103500       22.46925000       60.18700800
  |   32: Species H            31.59109900       21.03622500       59.64586700
  |   33: Species C            28.99156000       18.10926700       49.44782300
  |   34: Species C            30.31558400       20.15907700       49.37862600
  |   35: Species C            28.31356800       17.18837800       51.53256100
  |   36: Species C            28.78610800       18.14885000       53.73723900
  |   37: Species H            31.44694000       21.96648400       49.43278100
  |   38: Species C            28.33867900       17.16078500       50.12575400
  |   39: Species H            28.99852300       18.11776800       48.35551300
  |   40: Species H            30.28168400       20.09969500       48.28972500
  |   41: Species H            27.73225300       16.43603300       52.06628100
  |   42: Species C            27.65954600       18.76329400       54.31448300
  |   43: Species C            29.72205600       17.54976700       54.57101400
  |   44: Species H            27.79434600       16.37486400       49.60386800
  |   45: Species C            26.59347900       19.31540400       53.53686900
  |   46: Species C            27.57051700       18.87163600       55.73031600
  |   47: Species C            29.63188500       17.63364100       55.94352300
  |   48: Species H            30.57650800       17.04192100       54.12755100
  |   49: Species C            25.55937000       19.96168900       54.11030200
  |   50: Species H            26.63924900       19.19968500       52.45599100
  |   51: Species C            26.49303500       19.57955100       56.33142700
  |   52: Species C            28.58636300       18.32097500       56.55045100
  |   53: Species H            30.40769500       17.19545500       56.56689800
  |   54: Species H            24.75730800       20.37341300       53.49334500
  |   55: Species C            25.47718900       20.14571900       55.52312500
  |   56: Species C            26.44966200       19.75020100       57.73362100
  |   57: Species C            28.50760600       18.50065800       57.96147000
  |   58: Species C            24.44878800       20.86539100       56.13045500
  |   59: Species C            25.39615000       20.47352300       58.29542100
  |   60: Species C            27.49518500       19.18535400       58.52607800
  |   61: Species H            29.30578700       18.07909600       58.57622000
  |   62: Species H            23.66772800       21.31009600       55.51349800
  |   63: Species C            24.41911200       21.01494700       57.49734800
  |   64: Species H            25.36750100       20.60640200       59.37830500
  |   65: Species H            27.45706200       19.32992800       59.60595300
  |   66: Species H            23.60483700       21.58201700       57.94763000
  |

  | The smallest distance between any two atoms is         1.08742104 AA.
  |
  | The first atom of this pair is atom number                     47 .
  | The second atom of this pair is atom number                    53 .

  Number of empty states per atom not set in control.in - providing a guess from actual geometry.
  | Total number of empty states used during s.c.f. cycle:      162
  If you use a very high smearing, use empty_states (per atom!) in control.in to increase this value.

  Structure-dependent array size parameters: 
  | Maximum number of distinct radial functions  :       18
  | Maximum number of basis functions            :     1998
  | Number of Kohn-Sham states (occupied + empty):      300
------------------------------------------------------------

------------------------------------------------------------
          Preparing all fixed parts of the calculation.
------------------------------------------------------------
  Determining machine precision:
    2.225073858507201E-308
  Setting up grids for atomic and cluster calculations.

  Creating wave function, potential, and density for free atoms.

  Species: H

  List of occupied orbitals and eigenvalues:
    n    l              occ      energy [Ha]    energy [eV]
    1    0           1.0000        -0.238386        -6.4868


  Species: C

  List of occupied orbitals and eigenvalues:
    n    l              occ      energy [Ha]    energy [eV]
    1    0           2.0000       -10.049212      -273.4530
    2    0           2.0000        -0.504761       -13.7352
    2    1           2.0000        -0.193631        -5.2690

  Creating fixed part of basis set: Ionic, confined, hydrogenic.
 
  H                    hydrogenic:
 
  List of hydrogenic basis orbitals: 
    n    l      effective z      eigenvalue [eV]  inner max. [A]     outer max. [A]     outer radius [A]   
    2    0         2.100000       -14.9965           0.193243           1.317208           5.373006
    2    1         3.500000       -41.6672           0.602369           0.602369           4.056063
    1    0         0.850000        -9.8292           0.624871           0.624871           5.373006
    2    1         3.700000       -46.5653           0.573622           0.573622           3.910002
    2    0         1.200000        -4.5995           0.334980           2.228188           5.505995
    3    2         7.000000       -74.0753           0.680699           0.680699           3.769201
 
 
  C                    hydrogenic:
 
  List of hydrogenic basis orbitals: 
    n    l      effective z      eigenvalue [eV]  inner max. [A]     outer max. [A]     outer radius [A]   
    2    1         1.700000        -9.8152           1.245706           1.245706           5.401630
    3    2         6.000000       -54.4226           0.792453           0.792453           4.178599
    2    0         4.900000       -81.6681           0.082559           0.562749           3.353238
    4    3         9.800000       -81.6681           0.863254           0.863254           4.028125
    3    1         5.200000       -40.8774           0.305389           1.215618           4.898362
    3    0         4.300000       -27.9508           0.091041           1.610311           5.401630
    5    4        14.400000      -112.8510           0.917666           0.917666           3.883070
    3    2         6.200000       -58.1113           0.763917           0.763917           4.077671
 

  Adding cutoff potential to free-atom effective potential.
  Creating atomic-like basis functions for current effective potential.

  Species H                   :

  List of atomic basis orbitals and eigenvalues:
    n    l      energy [Ha]    energy [eV]    outer radius [A]
    1    0        -0.238386        -6.4868       5.373006


  Species C                   :

  List of atomic basis orbitals and eigenvalues:
    n    l      energy [Ha]    energy [eV]    outer radius [A]
    1    0       -10.049212      -273.4530       1.934409
    2    0        -0.504761       -13.7352       5.271162
    2    1        -0.193631        -5.2690       5.401630

  Assembling full basis from fixed parts.
  | Species H :   atomic orbital   1 s accepted.
  | Species H :    hydro orbital   2 s accepted.
  | Species H :    hydro orbital   1 s accepted.
  | Species H :    hydro orbital   2 s accepted.
  | Species H :    hydro orbital   2 p accepted.
  | Species H :    hydro orbital   2 p accepted.
  | Species H :    hydro orbital   3 d accepted.
  | Species C :   atomic orbital   1 s accepted.
  | Species C :    hydro orbital   2 s accepted.
  | Species C :   atomic orbital   2 s accepted.
  | Species C :    hydro orbital   3 s accepted.
  | Species C :    hydro orbital   3 p accepted.
  | Species C :   atomic orbital   2 p accepted.
  | Species C :    hydro orbital   2 p accepted.
  | Species C :    hydro orbital   3 d accepted.
  | Species C :    hydro orbital   3 d accepted.
  | Species C :    hydro orbital   4 f accepted.
  | Species C :    hydro orbital   5 g accepted.
 
  Basis size parameters after reduction:
  | Total number of radial functions:       18
  | Total number of basis functions :     1998
 
  Per-task memory consumption for arrays in subroutine allocate_ext:
  |           4.459696MB.
  Testing on-site integration grid accuracy.
  |  Species  Function  <phi|h_atom|phi> (log., in eV)  <phi|h_atom|phi> (rad., in eV)
           1        1                 -6.4870767962                 -6.4871688290
           1        2                 13.5032046589                 13.5028982997
           1        3                 32.8195184817                 32.8119941656
           1        4                 33.8513856511                 33.7670005767 ***
           1        5                 28.8544614965                 28.8544615203
           1        6                 59.6326952547                 59.6327656460
           1        7                 60.2719308513                 60.2719305949
           2        8               -273.4529726040               -273.4529710464
           2        9                -10.7721037319                -10.7721022101
           2       10                 17.6044132601                 17.6044162063
           2       11                 53.7706460658                 53.7706913770
           2       12                 15.0973290362                 15.0973256030
           2       13                  3.8545134692                  3.8545724687
           2       14                 12.1156992592                 12.1182024431
           2       15                 29.4352039302                 29.4352041816
           2       16                 54.8741144708                 54.8740268729
           2       17                 59.3556032049                 59.3556031382
           2       18                 93.4551837154                 93.4551838009
 * Note: Onsite integrals marked "***" above are less accurate than
 * onsite_accuracy_threshold =    0.03000 eV. Usually, this is harmless.
 * When in doubt, tighten the "radial" and/or "radial_multiplier" flags to check.

  Preparing densities etc. for the partition functions (integrals / Hartree potential).

  Preparations completed.
  max(cpu_time)          :      0.201 s.
  Wall clock time (cpu1) :      0.186 s.
------------------------------------------------------------

------------------------------------------------------------
          Begin self-consistency loop: Initialization.

          Date     :  20210620, Time     :  162702.551
------------------------------------------------------------

  Initializing index lists of integration centers etc. from given atomic structure:
  | Number of centers in hartree potential         :        66
  | Number of centers in hartree multipole         :        66
  | Number of centers in electron density summation:        66
  | Number of centers in basis integrals           :        66
  | Number of centers in integrals                 :        66
  | Number of centers in hamiltonian               :        66
  * Using 56 tasks for Scalapack Eigenvalue solver.
  Detailed listing of tasks and assigned k-points:
  (for non-periodic systems, the "k-point" denotes an internal label only)
   Task     0 k-point     1 on d021
   Task     1 k-point     1 on d021
   Task     2 k-point     1 on d021
   Task     3 k-point     1 on d021
   Task     4 k-point     1 on d021
   Task     5 k-point     1 on d021
   Task     6 k-point     1 on d021
   Task     7 k-point     1 on d021
   Task     8 k-point     1 on d021
   Task     9 k-point     1 on d021
   Task    10 k-point     1 on d021
   Task    11 k-point     1 on d021
   Task    12 k-point     1 on d021
   Task    13 k-point     1 on d021
   Task    14 k-point     1 on d021
   Task    15 k-point     1 on d021
   Task    16 k-point     1 on d021
   Task    17 k-point     1 on d021
   Task    18 k-point     1 on d021
   Task    19 k-point     1 on d021
   Task    20 k-point     1 on d021
   Task    21 k-point     1 on d021
   Task    22 k-point     1 on d021
   Task    23 k-point     1 on d021
   Task    24 k-point     1 on d021
   Task    25 k-point     1 on d021
   Task    26 k-point     1 on d021
   Task    27 k-point     1 on d021
   Task    28 k-point     1 on d021
   Task    29 k-point     1 on d021
   Task    30 k-point     1 on d021
   Task    31 k-point     1 on d021
   Task    32 k-point     1 on d021
   Task    33 k-point     1 on d021
   Task    34 k-point     1 on d021
   Task    35 k-point     1 on d021
   Task    36 k-point     1 on d021
   Task    37 k-point     1 on d021
   Task    38 k-point     1 on d021
   Task    39 k-point     1 on d021
   Task    40 k-point     1 on d021
   Task    41 k-point     1 on d021
   Task    42 k-point     1 on d021
   Task    43 k-point     1 on d021
   Task    44 k-point     1 on d021
   Task    45 k-point     1 on d021
   Task    46 k-point     1 on d021
   Task    47 k-point     1 on d021
   Task    48 k-point     1 on d021
   Task    49 k-point     1 on d021
   Task    50 k-point     1 on d021
   Task    51 k-point     1 on d021
   Task    52 k-point     1 on d021
   Task    53 k-point     1 on d021
   Task    54 k-point     1 on d021
   Task    55 k-point     1 on d021
  Tasks:    56 split into      8 X      7 BLACS grid
  Calculating block size based on n_basis =         1998 max_nprow =            8 max_npcol =            7
  ScaLAPACK block size set to:           16
  Allocating        0.590 MB for ovlp
  Allocating        0.590 MB for ham
  Allocating        0.590 MB for eigenvec
  Required Scalapack workspace - INTEGER:            1 REAL:             1
  Partitioning the integration grid into batches with parallel hashing+maxmin method.
  | Number of batches:     9459
  | Maximal batch size:     200
  | Minimal batch size:       1
  | Average batch size:     116.934
  | Standard deviation of batch sizes:      29.856

  Integration load balanced across     56 MPI tasks.
  Work distribution over tasks is as follows:
  Task      0 has      19816 integration points.
  Task      1 has      19859 integration points.
  Task      2 has      19763 integration points.
  Task      3 has      19840 integration points.
  Task      4 has      19661 integration points.
  Task      5 has      19864 integration points.
  Task      6 has      19611 integration points.
  Task      7 has      19868 integration points.
  Task      8 has      19798 integration points.
  Task      9 has      19633 integration points.
  Task     10 has      19852 integration points.
  Task     11 has      19695 integration points.
  Task     12 has      19731 integration points.
  Task     13 has      19682 integration points.
  Task     14 has      19881 integration points.
  Task     15 has      19801 integration points.
  Task     16 has      19687 integration points.
  Task     17 has      19807 integration points.
  Task     18 has      19692 integration points.
  Task     19 has      19740 integration points.
  Task     20 has      19678 integration points.
  Task     21 has      19846 integration points.
  Task     22 has      19741 integration points.
  Task     23 has      19679 integration points.
  Task     24 has      19808 integration points.
  Task     25 has      19667 integration points.
  Task     26 has      19770 integration points.
  Task     27 has      19632 integration points.
  Task     28 has      19803 integration points.
  Task     29 has      19855 integration points.
  Task     30 has      19706 integration points.
  Task     31 has      19808 integration points.
  Task     32 has      19734 integration points.
  Task     33 has      19713 integration points.
  Task     34 has      19681 integration points.
  Task     35 has      19828 integration points.
  Task     36 has      19807 integration points.
  Task     37 has      19604 integration points.
  Task     38 has      19889 integration points.
  Task     39 has      19698 integration points.
  Task     40 has      19746 integration points.
  Task     41 has      19627 integration points.
  Task     42 has      19776 integration points.
  Task     43 has      19904 integration points.
  Task     44 has      19632 integration points.
  Task     45 has      19780 integration points.
  Task     46 has      19751 integration points.
  Task     47 has      19729 integration points.
  Task     48 has      19695 integration points.
  Task     49 has      19841 integration points.
  Task     50 has      19764 integration points.
  Task     51 has      19702 integration points.
  Task     52 has      19856 integration points.
  Task     53 has      19779 integration points.
  Task     54 has      19771 integration points.
  Task     55 has      19495 integration points.
  Initializing partition tables, free-atom densities, potentials, etc. across the integration grid (initialize_grid_storage).
  | initialize_grid_storage: Actual outermost partition radius vs. multipole_radius_free
  | (-- VB: in principle, multipole_radius_free should be larger, hence this output)
  | Species        1: Confinement radius =              6.000000000000000 AA, multipole_radius_free =              6.071692442739658 AA.
  | Species        1: outer_partition_radius set to              6.071692442739658 AA .
  | Species        2: Confinement radius =              6.000000000000000 AA, multipole_radius_free =              6.029870734432609 AA.
  | Species        2: outer_partition_radius set to              6.029870734432609 AA .
  | The sparse table of interatomic distances needs     51.7480 kbyte instead of    34.8480 kbyte of memory.
  | Using the partition_type stratmann_smoother will reduce your memory usage.
  | Net number of integration points:  1106076
  | of which are non-zero points    :   855939
  Renormalizing the initial density to the exact electron count on the 3D integration grid.
  | Initial density: Formal number of electrons (from input files) :     276.0000000000
  | Integrated number of electrons on 3D grid     :     275.9991313541
  | Charge integration error                      :      -0.0008686459
  | Normalization factor for density and gradient :       1.0000031473
  Obtaining max. number of non-zero basis functions in each batch (get_n_compute_maxes).
  | Maximal number of non-zero basis functions:     1510
  Selecting the method for density update.
  Loop over occupied states selected for charge density update.
  Hamiltonian matrix size:
  | Size of matrix non-packed:               1997001
  | Size of matrix packed:         1846269
  Allocating        4.795 MB for KS_eigenvector
  use_local_index: Max. local matrix size =      1644108
  Task:     0 matrix size:     260273
  Task:     1 matrix size:     423837
  Task:     2 matrix size:     468938
  Task:     3 matrix size:     822523
  Task:     4 matrix size:    1226728
  Task:     5 matrix size:    1031084
  Task:     6 matrix size:    1406741
  Task:     7 matrix size:     512069
  Task:     8 matrix size:     941719
  Task:     9 matrix size:    1177736
  Task:    10 matrix size:     947395
  Task:    11 matrix size:     851518
  Task:    12 matrix size:    1644108
  Task:    13 matrix size:    1268311
  Task:    14 matrix size:     493962
  Task:    15 matrix size:     271949
  Task:    16 matrix size:     584871
  Task:    17 matrix size:    1146369
  Task:    18 matrix size:     941554
  Task:    19 matrix size:    1390735
  Task:    20 matrix size:     880581
  Task:    21 matrix size:     159330
  Task:    22 matrix size:     498283
  Task:    23 matrix size:     342339
  Task:    24 matrix size:    1475014
  Task:    25 matrix size:    1094095
  Task:    26 matrix size:    1387786
  Task:    27 matrix size:    1073897
  Task:    28 matrix size:    1167734
  Task:    29 matrix size:     714981
  Task:    30 matrix size:    1362157
  Task:    31 matrix size:     630551
  Task:    32 matrix size:     633207
  Task:    33 matrix size:     916417
  Task:    34 matrix size:    1021497
  Task:    35 matrix size:     581114
  Task:    36 matrix size:     495346
  Task:    37 matrix size:     461090
  Task:    38 matrix size:    1275528
  Task:    39 matrix size:     785186
  Task:    40 matrix size:     800034
  Task:    41 matrix size:     442963
  Task:    42 matrix size:    1408998
  Task:    43 matrix size:     945526
  Task:    44 matrix size:    1084305
  Task:    45 matrix size:     819295
  Task:    46 matrix size:    1138762
  Task:    47 matrix size:     721161
  Task:    48 matrix size:     489424
  Task:    49 matrix size:    1372473
  Task:    50 matrix size:    1153951
  Task:    51 matrix size:     879824
  Task:    52 matrix size:     836551
  Task:    53 matrix size:     476653
  Task:    54 matrix size:     587815
  Task:    55 matrix size:     472726
  Integrating Hamiltonian matrix: batch-based integration.
  Time summed over all CPUs for integration: real work      326.772 s, elapsed      655.725 s
  Time get_set_sparse_local_matrix_scalapack:     0.033108 s
  Start compute_balanced_batch_distribution
  Done load balancing, time needed:      0.011 s
  Integrating overlap matrix with loadbalancing
  Time summed over all CPUs for integration: real work       93.210 s, elapsed      113.473 s
  Time get_set_full_local_matrix_scalapack:     0.037989 s

  Updating Kohn-Sham eigenvalues and eigenvectors using ELSI and the ELPA eigensolver.
  Overlap matrix is not singular
  | Lowest and highest eigenvalues :  0.16E+02,  0.85E-04
  Finished singularity check of overlap matrix
  | Time :     0.149 s
  Finished Cholesky decomposition
  | Time :     0.032 s
  Finished transformation to standard eigenproblem
  | Time :     0.031 s
  Starting ELPA eigensolver
  Finished solving standard eigenproblem
  | Time :     0.165 s
  Finished back-transformation of eigenvectors
  | Time :     0.008 s

  Obtaining occupation numbers and chemical potential using ELSI.
  | Chemical potential (Fermi level):    -7.78909109 eV
  Writing Kohn-Sham eigenvalues.

  State    Occupation    Eigenvalue [Ha]    Eigenvalue [eV]
      1       2.00000         -10.177671         -276.94851
      2       2.00000         -10.176846         -276.92606
      3       2.00000         -10.176700         -276.92208
      4       2.00000         -10.176269         -276.91037
      5       2.00000         -10.175951         -276.90173
      6       2.00000         -10.175076         -276.87789
      7       2.00000         -10.174142         -276.85248
      8       2.00000         -10.173986         -276.84825
      9       2.00000         -10.173703         -276.84054
     10       2.00000         -10.173629         -276.83852
     11       2.00000         -10.173561         -276.83667
     12       2.00000         -10.173318         -276.83006
     13       2.00000         -10.173214         -276.82723
     14       2.00000         -10.173196         -276.82674
     15       2.00000         -10.173082         -276.82366
     16       2.00000         -10.172822         -276.81656
     17       2.00000         -10.172805         -276.81610
     18       2.00000         -10.172773         -276.81525
     19       2.00000         -10.172703         -276.81334
     20       2.00000         -10.172651         -276.81192
     21       2.00000         -10.172643         -276.81169
     22       2.00000         -10.172535         -276.80875
     23       2.00000         -10.172165         -276.79869
     24       2.00000         -10.172061         -276.79587
     25       2.00000         -10.170024         -276.74043
     26       2.00000         -10.169533         -276.72708
     27       2.00000         -10.169443         -276.72463
     28       2.00000         -10.169414         -276.72382
     29       2.00000         -10.169265         -276.71977
     30       2.00000         -10.169168         -276.71715
     31       2.00000         -10.168428         -276.69701
     32       2.00000         -10.168133         -276.68898
     33       2.00000         -10.167736         -276.67817
     34       2.00000         -10.167348         -276.66762
     35       2.00000         -10.167308         -276.66653
     36       2.00000         -10.166396         -276.64171
     37       2.00000         -10.166025         -276.63161
     38       2.00000         -10.164817         -276.59874
     39       2.00000         -10.163445         -276.56142
     40       2.00000         -10.163300         -276.55748
     41       2.00000         -10.162269         -276.52941
     42       2.00000         -10.159961         -276.46661
     43       2.00000          -1.028746          -27.99360
     44       2.00000          -1.024430          -27.87616
     45       2.00000          -1.013309          -27.57355
     46       2.00000          -0.993016          -27.02133
     47       2.00000          -0.991417          -26.97782
     48       2.00000          -0.972877          -26.47333
     49       2.00000          -0.969562          -26.38313
     50       2.00000          -0.965427          -26.27061
     51       2.00000          -0.947245          -25.77584
     52       2.00000          -0.941676          -25.62431
     53       2.00000          -0.923602          -25.13249
     54       2.00000          -0.909025          -24.73583
     55       2.00000          -0.896717          -24.40092
     56       2.00000          -0.890020          -24.21869
     57       2.00000          -0.887148          -24.14052
     58       2.00000          -0.880423          -23.95752
     59       2.00000          -0.878884          -23.91566
     60       2.00000          -0.873365          -23.76548
     61       2.00000          -0.869816          -23.66889
     62       2.00000          -0.856200          -23.29838
     63       2.00000          -0.848395          -23.08601
     64       2.00000          -0.782108          -21.28224
     65       2.00000          -0.781512          -21.26603
     66       2.00000          -0.780520          -21.23902
     67       2.00000          -0.778611          -21.18709
     68       2.00000          -0.769184          -20.93056
     69       2.00000          -0.768535          -20.91291
     70       2.00000          -0.765226          -20.82286
     71       2.00000          -0.761831          -20.73047
     72       2.00000          -0.759419          -20.66486
     73       2.00000          -0.750126          -20.41196
     74       2.00000          -0.723831          -19.69645
     75       2.00000          -0.691984          -18.82985
     76       2.00000          -0.690372          -18.78597
     77       2.00000          -0.682493          -18.57157
     78       2.00000          -0.675034          -18.36862
     79       2.00000          -0.672483          -18.29920
     80       2.00000          -0.671162          -18.26326
     81       2.00000          -0.664420          -18.07978
     82       2.00000          -0.658936          -17.93056
     83       2.00000          -0.653321          -17.77776
     84       2.00000          -0.653100          -17.77177
     85       2.00000          -0.647888          -17.62994
     86       2.00000          -0.631252          -17.17724
     87       2.00000          -0.629037          -17.11697
     88       2.00000          -0.616558          -16.77741
     89       2.00000          -0.615045          -16.73624
     90       2.00000          -0.610171          -16.60359
     91       2.00000          -0.606818          -16.51236
     92       2.00000          -0.602649          -16.39891
     93       2.00000          -0.599612          -16.31626
     94       2.00000          -0.598731          -16.29231
     95       2.00000          -0.586943          -15.97152
     96       2.00000          -0.585438          -15.93058
     97       2.00000          -0.583223          -15.87032
     98       2.00000          -0.579154          -15.75958
     99       2.00000          -0.577022          -15.70158
    100       2.00000          -0.559973          -15.23763
    101       2.00000          -0.558728          -15.20377
    102       2.00000          -0.553698          -15.06689
    103       2.00000          -0.551815          -15.01564
    104       2.00000          -0.547074          -14.88663
    105       2.00000          -0.544490          -14.81633
    106       2.00000          -0.535091          -14.56057
    107       2.00000          -0.534396          -14.54166
    108       2.00000          -0.533217          -14.50957
    109       2.00000          -0.529720          -14.41442
    110       2.00000          -0.529556          -14.40995
    111       2.00000          -0.525217          -14.29188
    112       2.00000          -0.520002          -14.14998
    113       2.00000          -0.519282          -14.13039
    114       2.00000          -0.516891          -14.06533
    115       2.00000          -0.510718          -13.89735
    116       2.00000          -0.504921          -13.73959
    117       2.00000          -0.501291          -13.64082
    118       2.00000          -0.497269          -13.53138
    119       2.00000          -0.490558          -13.34875
    120       2.00000          -0.489932          -13.33172
    121       2.00000          -0.487721          -13.27155
    122       2.00000          -0.480565          -13.07685
    123       2.00000          -0.477084          -12.98212
    124       2.00000          -0.474718          -12.91775
    125       2.00000          -0.471338          -12.82575
    126       2.00000          -0.453829          -12.34931
    127       2.00000          -0.437297          -11.89944
    128       2.00000          -0.428305          -11.65478
    129       2.00000          -0.426087          -11.59442
    130       2.00000          -0.416700          -11.33897
    131       2.00000          -0.406237          -11.05428
    132       2.00000          -0.404505          -11.00713
    133       2.00000          -0.398031          -10.83098
    134       2.00000          -0.392997          -10.69399
    135       2.00000          -0.382608          -10.41129
    136       2.00000          -0.375766          -10.22511
    137       2.00000          -0.362197           -9.85589
    138       2.00000          -0.354871           -9.65653
    139       0.00000          -0.262540           -7.14409
    140       0.00000          -0.255317           -6.94752
    141       0.00000          -0.242832           -6.60779
    142       0.00000          -0.234322           -6.37622
    143       0.00000          -0.226687           -6.16846
    144       0.00000          -0.217410           -5.91603
    145       0.00000          -0.209840           -5.71004
    146       0.00000          -0.208683           -5.67854
    147       0.00000          -0.192460           -5.23710
    148       0.00000          -0.191419           -5.20878
    149       0.00000          -0.181253           -4.93215
    150       0.00000          -0.161616           -4.39780
    151       0.00000          -0.155229           -4.22400
    152       0.00000          -0.120926           -3.29055
    153       0.00000          -0.108972           -2.96527
    154       0.00000          -0.107401           -2.92252
    155       0.00000          -0.081582           -2.21996
    156       0.00000          -0.078534           -2.13703
    157       0.00000          -0.077840           -2.11813
    158       0.00000          -0.071156           -1.93627
    159       0.00000          -0.067560           -1.83840
    160       0.00000          -0.065694           -1.78762
    161       0.00000          -0.063447           -1.72648
    162       0.00000          -0.058862           -1.60173
    163       0.00000          -0.050961           -1.38673
    164       0.00000          -0.048890           -1.33035
    165       0.00000          -0.045202           -1.23001
    166       0.00000          -0.041365           -1.12559
    167       0.00000          -0.039207           -1.06686
    168       0.00000          -0.036974           -1.00612
    169       0.00000          -0.029197           -0.79448
    170       0.00000          -0.023975           -0.65239
    171       0.00000          -0.021094           -0.57399
    172       0.00000          -0.018183           -0.49479
    173       0.00000          -0.016650           -0.45307
    174       0.00000          -0.014826           -0.40343
    175       0.00000          -0.012363           -0.33642
    176       0.00000          -0.007206           -0.19610
    177       0.00000          -0.003163           -0.08608
    178       0.00000           0.001064            0.02894
    179       0.00000           0.002176            0.05921
    180       0.00000           0.003495            0.09509
    181       0.00000           0.004114            0.11196
    182       0.00000           0.006404            0.17425
    183       0.00000           0.010633            0.28935
    184       0.00000           0.012607            0.34305
    185       0.00000           0.014476            0.39390
    186       0.00000           0.017327            0.47150
    187       0.00000           0.019731            0.53692
    188       0.00000           0.022338            0.60785
    189       0.00000           0.024691            0.67187
    190       0.00000           0.027503            0.74840
    191       0.00000           0.029462            0.80170
    192       0.00000           0.036624            0.99658
    193       0.00000           0.038063            1.03575
    194       0.00000           0.039680            1.07976
    195       0.00000           0.040935            1.11391
    196       0.00000           0.042600            1.15920
    197       0.00000           0.045999            1.25171
    198       0.00000           0.047181            1.28386
    199       0.00000           0.050518            1.37467
    200       0.00000           0.050587            1.37654
    201       0.00000           0.053919            1.46720
    202       0.00000           0.055066            1.49844
    203       0.00000           0.057752            1.57152
    204       0.00000           0.059166            1.60998
    205       0.00000           0.060134            1.63633
    206       0.00000           0.062995            1.71419
    207       0.00000           0.066083            1.79822
    208       0.00000           0.067706            1.84238
    209       0.00000           0.072149            1.96326
    210       0.00000           0.074391            2.02429
    211       0.00000           0.076117            2.07124
    212       0.00000           0.078724            2.14219
    213       0.00000           0.081056            2.20566
    214       0.00000           0.081512            2.21805
    215       0.00000           0.085096            2.31559
    216       0.00000           0.087636            2.38469
    217       0.00000           0.089976            2.44838
    218       0.00000           0.092037            2.50445
    219       0.00000           0.094082            2.56009
    220       0.00000           0.094739            2.57798
    221       0.00000           0.096140            2.61611
    222       0.00000           0.101859            2.77174
    223       0.00000           0.104465            2.84263
    224       0.00000           0.105553            2.87226
    225       0.00000           0.106483            2.89754
    226       0.00000           0.108814            2.96099
    227       0.00000           0.116282            3.16419
    228       0.00000           0.118073            3.21293
    229       0.00000           0.119643            3.25564
    230       0.00000           0.121627            3.30964
    231       0.00000           0.123164            3.35145
    232       0.00000           0.124617            3.39099
    233       0.00000           0.127450            3.46810
    234       0.00000           0.128530            3.49747
    235       0.00000           0.129806            3.53219
    236       0.00000           0.132844            3.61488
    237       0.00000           0.133694            3.63800
    238       0.00000           0.137172            3.73265
    239       0.00000           0.139888            3.80656
    240       0.00000           0.141414            3.84807
    241       0.00000           0.145349            3.95516
    242       0.00000           0.145530            3.96007
    243       0.00000           0.147446            4.01221
    244       0.00000           0.148142            4.03115
    245       0.00000           0.150847            4.10476
    246       0.00000           0.153340            4.17261
    247       0.00000           0.155609            4.23433
    248       0.00000           0.156353            4.25458
    249       0.00000           0.158778            4.32057
    250       0.00000           0.160850            4.37696
    251       0.00000           0.161685            4.39967
    252       0.00000           0.163184            4.44045
    253       0.00000           0.163796            4.45712
    254       0.00000           0.167396            4.55507
    255       0.00000           0.168231            4.57779
    256       0.00000           0.170661            4.64393
    257       0.00000           0.171611            4.66978
    258       0.00000           0.174387            4.74531
    259       0.00000           0.175311            4.77045
    260       0.00000           0.181136            4.92896
    261       0.00000           0.181473            4.93812
    262       0.00000           0.183992            5.00667
    263       0.00000           0.186471            5.07414
    264       0.00000           0.188523            5.12997
    265       0.00000           0.195005            5.30634
    266       0.00000           0.195210            5.31193
    267       0.00000           0.196701            5.35250
    268       0.00000           0.197035            5.36159
    269       0.00000           0.203103            5.52671
    270       0.00000           0.207449            5.64497
    271       0.00000           0.208322            5.66872
    272       0.00000           0.211837            5.76437
    273       0.00000           0.212247            5.77554
    274       0.00000           0.215024            5.85111
    275       0.00000           0.216324            5.88647
    276       0.00000           0.220827            6.00900
    277       0.00000           0.225260            6.12964
    278       0.00000           0.226958            6.17583
    279       0.00000           0.230143            6.26252
    280       0.00000           0.231058            6.28740
    281       0.00000           0.233706            6.35945
    282       0.00000           0.235502            6.40834
    283       0.00000           0.241329            6.56688
    284       0.00000           0.242188            6.59026
    285       0.00000           0.245709            6.68607
    286       0.00000           0.246271            6.70137
    287       0.00000           0.249809            6.79764
    288       0.00000           0.252607            6.87379
    289       0.00000           0.253604            6.90093
    290       0.00000           0.256057            6.96767
    291       0.00000           0.258952            7.04643
    292       0.00000           0.262486            7.14261
    293       0.00000           0.264839            7.20663
    294       0.00000           0.266019            7.23874
    295       0.00000           0.270168            7.35163
    296       0.00000           0.273886            7.45281
    297       0.00000           0.277288            7.54539
    298       0.00000           0.281901            7.67092
    299       0.00000           0.282945            7.69933
    300       0.00000           0.285987            7.78211

  Highest occupied state (VBM) at     -9.65652643 eV
  | Occupation number:      2.00000000

  Lowest unoccupied state (CBM) at    -7.14408609 eV
  | Occupation number:      0.00000000

  Overall HOMO-LUMO gap:      2.51244033 eV.
  Calculating total energy contributions from superposition of free atom densities.

  Total energy components:
  | Sum of eigenvalues            :        -979.25051459 Ha      -26646.76227440 eV
  | XC energy correction          :        -231.38333487 Ha       -6296.26089192 eV
  | XC potential correction       :         297.22883025 Ha        8088.00798445 eV
  | Free-atom electrostatic energy:        -702.87968118 Ha      -19126.32926185 eV
  | Hartree energy correction     :           0.00000000 Ha           0.00000000 eV
  | Entropy correction            :           0.00000000 Ha           0.00000000 eV
  | ---------------------------
  | Total energy                  :       -1616.28470039 Ha      -43981.34444372 eV
  | Total energy, T -> 0          :       -1616.28470039 Ha      -43981.34444372 eV  <-- do not rely on this value for anything but (periodic) metals
  | Electronic free energy        :       -1616.28470039 Ha      -43981.34444372 eV

  Derived energy quantities:
  | Kinetic energy                :        1602.04559101 Ha       43593.87856358 eV
  | Electrostatic energy          :       -2986.94695653 Ha      -81278.96211538 eV
  | Energy correction for multipole
  | error in Hartree potential    :           0.00000000 Ha           0.00000000 eV
  | Sum of eigenvalues per atom                           :        -403.73882234 eV
  | Total energy (T->0) per atom                          :        -666.38400672 eV  <-- do not rely on this value for anything but (periodic) metals
  | Electronic free energy per atom                       :        -666.38400672 eV
  Initialize hartree_potential_storage
  Max. number of atoms included in rho_multipole:           66

  End scf initialization - timings             :  max(cpu_time)    wall_clock(cpu1)
  | Time for scf. initialization               :       17.550 s          17.624 s
  | Boundary condition initialization          :        0.001 s           0.003 s
  | Integration                                :       13.852 s          13.858 s
  | Solution of K.-S. eqns.                    :        0.414 s           0.430 s
  | Grid partitioning                          :        0.963 s           0.976 s
  | Preloading free-atom quantities on grid    :        0.014 s           0.016 s
  | Free-atom superposition energy             :        0.138 s           0.139 s
  | Total energy evaluation                    :        0.001 s           0.005 s

  Partial memory accounting:
  | Current value for overall tracked memory usage on task 0  :           7.606 MB
  | Peak value for overall tracked memory usage on task 0     :          49.710 MB after allocating zora_vector2
  | Largest tracked array allocation on task 0 so far         :          18.241 MB  when allocating hamiltonian_shell
  Note:  These values currently only include a subset of arrays which are explicitly tracked.
  The "true" memory usage will be greater.
------------------------------------------------------------

------------------------------------------------------------
          Begin self-consistency iteration #    1

  Date     :  20210620, Time     :  162720.177
------------------------------------------------------------
  Evaluating new KS density.
  Integration grid: deviation in total charge (<rho> - N_e) =  -5.684342E-14
  Pulay mixing of updated and previous charge densities.

  Evaluating partitioned Hartree potential by multipole expansion.
  | Analytical far-field extrapolation by fixed multipoles:
  | Hartree multipole sum: apparent total charge =  -0.881208E-03
  Summing up the Hartree potential with load balancing.
  Time summed over all CPUs for potential: real work       44.370 s, elapsed       87.009 s
  | RMS charge density error from multipole expansion :   0.163338E-01

  Start compute_balanced_batch_distribution
  Done load balancing, time needed:      0.009 s
  Integrating Hamiltonian matrix: batch-based integration with load balancing
  Time summed over all CPUs for integration: real work      361.778 s, elapsed      415.794 s
  Time get_set_full_local_matrix_scalapack:     0.038513 s
  Start compute_balanced_batch_distribution
  Done load balancing, time needed:      0.011 s

  Updating Kohn-Sham eigenvalues and eigenvectors using ELSI and the ELPA eigensolver.
  Finished transformation to standard eigenproblem
  | Time :     0.034 s
  Starting ELPA eigensolver
  Finished solving standard eigenproblem
  | Time :     0.165 s
  Finished back-transformation of eigenvectors
  | Time :     0.007 s

  Obtaining occupation numbers and chemical potential using ELSI.
  | Chemical potential (Fermi level):    -4.85177602 eV
  Writing Kohn-Sham eigenvalues.

  State    Occupation    Eigenvalue [Ha]    Eigenvalue [eV]
      1       2.00000          -9.987359         -271.76987
      2       2.00000          -9.982737         -271.64411
      3       2.00000          -9.979142         -271.54627
      4       2.00000          -9.973506         -271.39291
      5       2.00000          -9.971209         -271.33040
      6       2.00000          -9.970189         -271.30266
      7       2.00000          -9.963330         -271.11601
      8       2.00000          -9.961047         -271.05388
      9       2.00000          -9.959592         -271.01429
     10       2.00000          -9.959507         -271.01198
     11       2.00000          -9.959375         -271.00839
     12       2.00000          -9.958662         -270.98897
     13       2.00000          -9.957250         -270.95057
     14       2.00000          -9.956170         -270.92117
     15       2.00000          -9.955263         -270.89648
     16       2.00000          -9.954913         -270.88697
     17       2.00000          -9.952790         -270.82921
     18       2.00000          -9.952223         -270.81378
     19       2.00000          -9.948628         -270.71593
     20       2.00000          -9.948271         -270.70624
     21       2.00000          -9.946787         -270.66585
     22       2.00000          -9.945954         -270.64318
     23       2.00000          -9.945366         -270.62717
     24       2.00000          -9.944629         -270.60712
     25       2.00000          -9.944554         -270.60507
     26       2.00000          -9.944074         -270.59202
     27       2.00000          -9.943798         -270.58451
     28       2.00000          -9.943542         -270.57755
     29       2.00000          -9.943398         -270.57363
     30       2.00000          -9.943207         -270.56842
     31       2.00000          -9.943164         -270.56727
     32       2.00000          -9.941345         -270.51777
     33       2.00000          -9.941044         -270.50957
     34       2.00000          -9.939587         -270.46993
     35       2.00000          -9.939269         -270.46126
     36       2.00000          -9.938791         -270.44825
     37       2.00000          -9.937145         -270.40348
     38       2.00000          -9.936761         -270.39302
     39       2.00000          -9.936463         -270.38493
     40       2.00000          -9.936190         -270.37750
     41       2.00000          -9.935157         -270.34936
     42       2.00000          -9.934517         -270.33196
     43       2.00000          -0.870808          -23.69589
     44       2.00000          -0.862009          -23.45646
     45       2.00000          -0.859450          -23.38681
     46       2.00000          -0.831724          -22.63236
     47       2.00000          -0.830146          -22.58942
     48       2.00000          -0.813670          -22.14108
     49       2.00000          -0.808188          -21.99191
     50       2.00000          -0.803394          -21.86146
     51       2.00000          -0.787908          -21.44007
     52       2.00000          -0.777864          -21.16676
     53       2.00000          -0.768699          -20.91737
     54       2.00000          -0.752942          -20.48858
     55       2.00000          -0.740986          -20.16324
     56       2.00000          -0.732332          -19.92777
     57       2.00000          -0.730639          -19.88169
     58       2.00000          -0.726412          -19.76668
     59       2.00000          -0.720154          -19.59639
     60       2.00000          -0.714001          -19.42895
     61       2.00000          -0.709815          -19.31506
     62       2.00000          -0.696630          -18.95626
     63       2.00000          -0.688569          -18.73693
     64       2.00000          -0.633034          -17.22574
     65       2.00000          -0.631092          -17.17289
     66       2.00000          -0.624083          -16.98217
     67       2.00000          -0.621850          -16.92141
     68       2.00000          -0.619848          -16.86692
     69       2.00000          -0.616662          -16.78023
     70       2.00000          -0.615734          -16.75498
     71       2.00000          -0.610853          -16.62215
     72       2.00000          -0.605851          -16.48604
     73       2.00000          -0.599063          -16.30134
     74       2.00000          -0.578026          -15.72889
     75       2.00000          -0.545037          -14.83122
     76       2.00000          -0.542679          -14.76706
     77       2.00000          -0.535178          -14.56294
     78       2.00000          -0.523909          -14.25630
     79       2.00000          -0.522612          -14.22100
     80       2.00000          -0.518280          -14.10311
     81       2.00000          -0.513345          -13.96884
     82       2.00000          -0.513008          -13.95966
     83       2.00000          -0.511796          -13.92668
     84       2.00000          -0.509261          -13.85770
     85       2.00000          -0.502635          -13.67738
     86       2.00000          -0.490344          -13.34295
     87       2.00000          -0.487858          -13.27528
     88       2.00000          -0.476043          -12.95379
     89       2.00000          -0.467000          -12.70771
     90       2.00000          -0.463359          -12.60863
     91       2.00000          -0.450449          -12.25735
     92       2.00000          -0.447921          -12.18855
     93       2.00000          -0.446914          -12.16116
     94       2.00000          -0.445070          -12.11098
     95       2.00000          -0.442384          -12.03787
     96       2.00000          -0.440773          -11.99404
     97       2.00000          -0.438384          -11.92905
     98       2.00000          -0.426347          -11.60150
     99       2.00000          -0.423532          -11.52488
    100       2.00000          -0.420572          -11.44436
    101       2.00000          -0.417691          -11.36596
    102       2.00000          -0.412790          -11.23258
    103       2.00000          -0.409013          -11.12981
    104       2.00000          -0.406828          -11.07037
[...]
    130       2.00000          -0.242831           -6.60777
    131       2.00000          -0.232318           -6.32169
    132       2.00000          -0.231295           -6.29387
    133       2.00000          -0.228135           -6.20788
    134       2.00000          -0.219826           -5.98176
    135       2.00000          -0.206686           -5.62421
    136       2.00000          -0.202002           -5.49675
    137       2.00000          -0.185880           -5.05806
    138       2.00000          -0.176990           -4.81613
    139       0.00000          -0.088009           -2.39484
    140       0.00000          -0.079702           -2.16881
    141       0.00000          -0.075121           -2.04413
    142       0.00000          -0.062368           -1.69711
    143       0.00000          -0.051043           -1.38895
    144       0.00000          -0.049116           -1.33651
    145       0.00000          -0.039780           -1.08247
    146       0.00000          -0.038695           -1.05295
    147       0.00000          -0.020943           -0.56988
    148       0.00000          -0.019841           -0.53991
    149       0.00000          -0.017171           -0.46726
    150       0.00000          -0.009597           -0.26114
    151       0.00000          -0.004211           -0.11460
    152       0.00000          -0.001186           -0.03228
    153       0.00000           0.006854            0.18651
    154       0.00000           0.008013            0.21805
    155       0.00000           0.012971            0.35296
    156       0.00000           0.014439            0.39291
    157       0.00000           0.016433            0.44715
    158       0.00000           0.020255            0.55116
    159       0.00000           0.021695            0.59036
    160       0.00000           0.025952            0.70620
    161       0.00000           0.028140            0.76573
    162       0.00000           0.032756            0.89135
    163       0.00000           0.036607            0.99611
    164       0.00000           0.039551            1.07623
    165       0.00000           0.042206            1.14847
    166       0.00000           0.045872            1.24824
    167       0.00000           0.049974            1.35987
    168       0.00000           0.053292            1.45014
    169       0.00000           0.055399            1.50748
    170       0.00000           0.058998            1.60541
    171       0.00000           0.062526            1.70142
    172       0.00000           0.065648            1.78638
    173       0.00000           0.069919            1.90260
    174       0.00000           0.075617            2.05764
    175       0.00000           0.081504            2.21782
    176       0.00000           0.084248            2.29249
    177       0.00000           0.087300            2.37556
    178       0.00000           0.089068            2.42366
    179       0.00000           0.093479            2.54370
    180       0.00000           0.097822            2.66188
    181       0.00000           0.100783            2.74243
    182       0.00000           0.106979            2.91104
    183       0.00000           0.112877            3.07154
    184       0.00000           0.116120            3.15977
    185       0.00000           0.118936            3.23642
    186       0.00000           0.123874            3.37078
    187       0.00000           0.127767            3.47671
    188       0.00000           0.132551            3.60691
    189       0.00000           0.134402            3.65727
    190       0.00000           0.136267            3.70800
    191       0.00000           0.140410            3.82076
    192       0.00000           0.144176            3.92323
    193       0.00000           0.147157            4.00434
    194       0.00000           0.151755            4.12946
    195       0.00000           0.153230            4.16959
    196       0.00000           0.155720            4.23736
    197       0.00000           0.157998            4.29935
    198       0.00000           0.161306            4.38936
    199       0.00000           0.162944            4.43393
    200       0.00000           0.165341            4.49916
    201       0.00000           0.168484            4.58469
    202       0.00000           0.171830            4.67572
    203       0.00000           0.175583            4.77786
    204       0.00000           0.178062            4.84532
    205       0.00000           0.180832            4.92069
    206       0.00000           0.181975            4.95179
    207       0.00000           0.185810            5.05615
    208       0.00000           0.186294            5.06932
    209       0.00000           0.187994            5.11559
    210       0.00000           0.188581            5.13156
    211       0.00000           0.190530            5.18457
    212       0.00000           0.191762            5.21811
    213       0.00000           0.195915            5.33111
    214       0.00000           0.198342            5.39716
    215       0.00000           0.200528            5.45663
    216       0.00000           0.206498            5.61910
    217       0.00000           0.208048            5.66126
    218       0.00000           0.209343            5.69652
    219       0.00000           0.209744            5.70743
    220       0.00000           0.211352            5.75117
    221       0.00000           0.213654            5.81382
    222       0.00000           0.215043            5.85161
    223       0.00000           0.216763            5.89843
    224       0.00000           0.219284            5.96702
    225       0.00000           0.221112            6.01676
    226       0.00000           0.221539            6.02838
    227       0.00000           0.223276            6.07564
    228       0.00000           0.228269            6.21151
    229       0.00000           0.230206            6.26422
    230       0.00000           0.230963            6.28481
    231       0.00000           0.231566            6.30122
    232       0.00000           0.234412            6.37867
    233       0.00000           0.236455            6.43428
    234       0.00000           0.237016            6.44954
    235       0.00000           0.238792            6.49785
    236       0.00000           0.241031            6.55879
    237       0.00000           0.243004            6.61249
    238       0.00000           0.245065            6.66857
    239       0.00000           0.245981            6.69349
    240       0.00000           0.247824            6.74364
    241       0.00000           0.251139            6.83383
    242       0.00000           0.254117            6.91486
    243       0.00000           0.257161            6.99771
    244       0.00000           0.258989            7.04744
    245       0.00000           0.260631            7.09213
    246       0.00000           0.262708            7.14864
    247       0.00000           0.265919            7.23601
    248       0.00000           0.266711            7.25757
    249       0.00000           0.268691            7.31146
    250       0.00000           0.270443            7.35913
    251       0.00000           0.272030            7.40233
    252       0.00000           0.273412            7.43992
    253       0.00000           0.276547            7.52524
    254       0.00000           0.279332            7.60100
    255       0.00000           0.281526            7.66071
    256       0.00000           0.285189            7.76038
    257       0.00000           0.286879            7.80637
    258       0.00000           0.288500            7.85048
    259       0.00000           0.292449            7.95795
    260       0.00000           0.294540            8.01485
    261       0.00000           0.294876            8.02398
    262       0.00000           0.296856            8.07785
    263       0.00000           0.298405            8.12003
    264       0.00000           0.303847            8.26810
    265       0.00000           0.306612            8.34333
    266       0.00000           0.310877            8.45939
    267       0.00000           0.311419            8.47414
    268       0.00000           0.313779            8.53835
    269       0.00000           0.317277            8.63353
    270       0.00000           0.318236            8.65964
    271       0.00000           0.319651            8.69814
    272       0.00000           0.323996            8.81637
    273       0.00000           0.326530            8.88534
    274       0.00000           0.327889            8.92232
    275       0.00000           0.329026            8.95325
    276       0.00000           0.331609            9.02353
    277       0.00000           0.336427            9.15465
    278       0.00000           0.338356            9.20713
    279       0.00000           0.340475            9.26481
    280       0.00000           0.341176            9.28387
    281       0.00000           0.343452            9.34581
    282       0.00000           0.348542            9.48431
    283       0.00000           0.353134            9.60925
    284       0.00000           0.354650            9.65052
    285       0.00000           0.359659            9.78683
    286       0.00000           0.361776            9.84444
    287       0.00000           0.367794           10.00819
    288       0.00000           0.369447           10.05316
    289       0.00000           0.372726           10.14240
    290       0.00000           0.375516           10.21831
    291       0.00000           0.378613           10.30259
    292       0.00000           0.382895           10.41911
    293       0.00000           0.384948           10.47497
    294       0.00000           0.394802           10.74310
    295       0.00000           0.405071           11.02256
    296       0.00000           0.409415           11.14074
    297       0.00000           0.412924           11.23622
    298       0.00000           0.417879           11.37107
    299       0.00000           0.423404           11.52141
    300       0.00000           0.426887           11.61619

  Highest occupied state (VBM) at     -4.81613048 eV
  | Occupation number:      2.00000000

  Lowest unoccupied state (CBM) at    -2.39483980 eV
  | Occupation number:      0.00000000

  Overall HOMO-LUMO gap:      2.42129067 eV.

  Total energy components:
  | Sum of eigenvalues            :        -918.05978873 Ha      -24981.67790501 eV
  | XC energy correction          :        -235.61052266 Ha       -6411.28852437 eV
  | XC potential correction       :         302.68577349 Ha        8236.49896519 eV
  | Free-atom electrostatic energy:        -702.87968118 Ha      -19126.32926185 eV
  | Hartree energy correction     :         -60.44954893 Ha       -1644.91591890 eV
  | Entropy correction            :           0.00000000 Ha           0.00000000 eV
  | ---------------------------
  | Total energy                  :       -1614.31376801 Ha      -43927.71264493 eV
  | Total energy, T -> 0          :       -1614.31376801 Ha      -43927.71264493 eV  <-- do not rely on this value for anything but (periodic) metals
  | Electronic free energy        :       -1614.31376801 Ha      -43927.71264493 eV

  Derived energy quantities:
  | Kinetic energy                :        1610.84898316 Ha       43833.43105219 eV
  | Electrostatic energy          :       -2989.55222851 Ha      -81349.85517276 eV
  | Energy correction for multipole
  | error in Hartree potential    :          -0.21021862 Ha          -5.72033967 eV
  | Sum of eigenvalues per atom                           :        -378.51027129 eV
  | Total energy (T->0) per atom                          :        -665.57140371 eV  <-- do not rely on this value for anything but (periodic) metals
  | Electronic free energy per atom                       :        -665.57140371 eV
  End evaluation of scaled ZORA corrections.
  | Time for scaled ZORA corrections           :       13.842 s          13.843 s
------------------------------------------------------------

  Energy and forces in a compact form:
  | Total energy uncorrected      :         -0.439277126449346E+05 eV
  | Total energy corrected        :         -0.439277126449346E+05 eV  <-- do not rely on this value for anything but (periodic) metals
  | Electronic free energy        :         -0.439277126449346E+05 eV

  ------------------------------------ 
  Start decomposition of the XC Energy 
  ------------------------------------ 
  X and C from original XC functional choice 
  Hartree-Fock Energy :          0.000000000 Ha              0.000000000 eV
  X Energy            :       -226.310246914 Ha          -6158.215145060 eV
  C Energy            :         -9.300275747 Ha           -253.073379310 eV
  Total XC Energy     :       -235.610522661 Ha          -6411.288524371 eV
  ------------------------------------ 
  LDA X and C from self-consistent density 
  X Energy LDA        :       -205.039795420 Ha          -5579.416710982 eV
  C Energy LDA        :        -17.861547326 Ha           -486.037432042 eV
  ------------------------------------ 
  End decomposition of the XC Energy 
  ------------------------------------ 

------------------------------------------------------------

------------------------------------------------------------------------------
  Final output of selected total energy values:

  The following output summarizes some interesting total energy values
  at the end of a run (AFTER all relaxation, molecular dynamics, etc.).

  | Total energy of the DFT / Hartree-Fock s.c.f. calculation      :         -43927.712644935 eV
  | Final zero-broadening corrected energy (caution - metals only) :         -43927.712644935 eV
  | For reference only, the value of 1 Hartree used in FHI-aims is :             27.211384500 eV

  Before relying on these values, please be sure to understand exactly which
  total energy value is referred to by a given number. Different objects may
  all carry the same name 'total energy'. Definitions:

  Total energy of the DFT / Hartree-Fock s.c.f. calculation:
  | Note that this energy does not include ANY quantities calculated after the
  | s.c.f. cycle, in particular not ANY RPA, MP2, etc. many-body perturbation terms.
  | Scalar relativistic effects have been included in the 'scaled ZORA' approximation.

  Final zero-broadening corrected energy:
  | For metallic systems only, a broadening of the occupation numbers at the Fermi
  | level can be extrapolated back to zero broadening by an electron-gas inspired
  | formula. For all systems that are not real metals, this value can be
  | meaningless and should be avoided.

------------------------------------------------------------------------------
  Methods described in the following list of references were used in this FHI-aims run.
  If you publish the results, please make sure to cite these reference if they apply.
  FHI-aims is an academic code, and for our developers (often, Ph.D. students
  and postdocs), scientific credit in the community is essential.
  Thank you for helping us!

  For any use of FHI-aims, please cite:

    Volker Blum, Ralf Gehrke, Felix Hanke, Paula Havu, Ville Havu,
    Xinguo Ren, Karsten Reuter, and Matthias Scheffler
    'Ab initio molecular simulations with numeric atom-centered orbitals'
    Computer Physics Communications 180, 2175-2196 (2009)
    http://dx.doi.org/10.1016/j.cpc.2009.06.022


  The scalable eigensolver library ELPA was used in your run.
  ELPA is essential especially for large systems on hundreds or thousands of CPUs.
  For ELPA, please cite:

    Andreas Marek, Volker Blum, Rainer Johanni, Ville Havu, Bruno Lang,
    Thomas Auckenthaler, Alexander Heinecke, Hans-Joachim Bungartz, and Hermann Lederer,
    'The ELPA Library - Scalable Parallel Eigenvalue Solutions
    for Electronic Structure Theory and Computational Science'
    The Journal of Physics: Condensed Matter 26, 213201 (2014).
    http://dx.doi.org/10.1088/0953-8984/26/21/213201


  The ELSI infrastructure was used in your run to solve the Kohn-Sham electronic structure.
  Please check out http://elsi-interchange.org to learn more.
  If scalability is important for your project, please acknowledge ELSI by citing:

    V. W-z. Yu, F. Corsetti, A. Garcia, W. P. Huhn, M. Jacquelin, W. Jia,
    B. Lange, L. Lin, J. Lu, W. Mi, A. Seifitokaldani, A. Vazquez-Mayagoitia,
    C. Yang, H. Yang, and V. Blum
    'ELSI: A unified software interface for Kohn-Sham electronic structure solvers'
    Computer Physics Communications 222, 267-285 (2018).
    http://dx.doi.org/10.1016/j.cpc.2017.09.007


  For the real-space grid partitioning and parallelization used in this calculation, please cite:

    Ville Havu, Volker Blum, Paula Havu, and Matthias Scheffler,
    'Efficient O(N) integration for all-electron electronic structure calculation'
    'using numerically tabulated basis functions'
    Journal of Computational Physics 228, 8367-8379 (2009).
    http://dx.doi.org/10.1016/j.jcp.2009.08.008

  Of course, there are many other important community references, e.g., those cited in the
  above references. Our list is limited to references that describe implementations in the
  FHI-aims code. The reason is purely practical (length of this list) - please credit others as well.

------------------------------------------------------------
          Leaving FHI-aims.
          Date     :  20210620, Time     :  163052.593

          Computational steps:
          | Number of self-consistency cycles          :           18
          | Number of SCF (re)initializations          :            1

          Detailed time accounting                     :  max(cpu_time)    wall_clock(cpu1)
          | Total time                                 :      230.199 s         230.439 s
          | Preparation time                           :        0.201 s           0.186 s
          | Boundary condition initalization           :        0.001 s           0.003 s
          | Grid partitioning                          :        0.963 s           0.976 s
          | Preloading free-atom quantities on grid    :        0.014 s           0.016 s
          | Free-atom superposition energy             :        0.138 s           0.139 s
          | Total time for integrations                :      137.081 s         137.088 s
          | Total time for solution of K.-S. equations :        5.683 s           5.707 s
          | Total time for density update              :       52.407 s          52.360 s
          | Total time for mixing                      :        0.199 s           0.203 s
          | Total time for Hartree multipole update    :        0.241 s           0.251 s
          | Total time for Hartree multipole sum       :       17.002 s          17.006 s
          | Total time for total energy evaluation     :        0.012 s           0.035 s
          | Total time for scaled ZORA corrections     :       13.842 s          13.843 s

          Partial memory accounting:
          | Residual value for overall tracked memory usage across tasks :     0.000000 MB (should be 0.000000 MB)
          | Peak values for overall tracked memory usage (after allocating zora_vector2):
          |   Minimum:       49.976 MB (on task 22)
          |   Maximum:       66.303 MB (on task 13)
          |   Average:       58.271 MB
          | Largest tracked array allocation (hamiltonian_shell):
          |   Minimum:       18.241 MB (on task  1)
          |   Maximum:       18.241 MB (on task  1)
          |   Average:       18.241 MB
          Note:  These values currently only include a subset of arrays which are explicitly tracked.
          The "true" memory usage will be greater.

          Have a nice day.
------------------------------------------------------------
