  MPI-parallelism will be employed.
------------------------------------------------------------
          Invoking FHI-aims ...
          Version 180607
          Git rev. (modified): 6724847 Fix JSON memory corruption in scf_solver
          Compiled on 2018/06/27 at 16:00:31 on host coe.psc.edu.

          When using FHI-aims, please cite the following reference:

          Volker Blum, Ralf Gehrke, Felix Hanke, Paula Havu,
          Ville Havu, Xinguo Ren, Karsten Reuter, and Matthias Scheffler,
          'Ab Initio Molecular Simulations with Numeric Atom-Centered Orbitals',
          Computer Physics Communications 180, 2175-2196 (2009)

          For any questions about FHI-aims, please visit the aimsclub website
          with its forums and wiki. Contributions to both the forums and the
          wiki are warmly encouraged - they are for you, and everyone is welcome there.

------------------------------------------------------------



  Date     :  20210620, Time     :  173005.724
  Time zero on CPU 1             :   0.297173000000000E+00  s.
  Internal wall clock time zero  :           393442205.724  s.

  FHI-aims created a unique identifier for this run for later identification
  aims_uuid : 40C7970E-F0DC-40A3-A061-2198F876590D

  Using       56 parallel tasks.
  Task        0 on host d021 reporting.
  Task        1 on host d021 reporting.
  Task        2 on host d021 reporting.
  Task        3 on host d021 reporting.
  Task        4 on host d021 reporting.
  Task        5 on host d021 reporting.
  Task        6 on host d021 reporting.
  Task        7 on host d021 reporting.
  Task        8 on host d021 reporting.
  Task        9 on host d021 reporting.
  Task       10 on host d021 reporting.
  Task       11 on host d021 reporting.
  Task       12 on host d021 reporting.
  Task       13 on host d021 reporting.
  Task       14 on host d021 reporting.
  Task       15 on host d021 reporting.
  Task       16 on host d021 reporting.
  Task       17 on host d021 reporting.
  Task       18 on host d021 reporting.
  Task       19 on host d021 reporting.
  Task       20 on host d021 reporting.
  Task       21 on host d021 reporting.
  Task       22 on host d021 reporting.
  Task       23 on host d021 reporting.
  Task       24 on host d021 reporting.
  Task       25 on host d021 reporting.
  Task       26 on host d021 reporting.
  Task       27 on host d021 reporting.
  Task       28 on host d021 reporting.
  Task       29 on host d021 reporting.
  Task       30 on host d021 reporting.
  Task       31 on host d021 reporting.
  Task       32 on host d021 reporting.
  Task       33 on host d021 reporting.
  Task       34 on host d021 reporting.
  Task       35 on host d021 reporting.
  Task       36 on host d021 reporting.
  Task       37 on host d021 reporting.
  Task       38 on host d021 reporting.
  Task       39 on host d021 reporting.
  Task       40 on host d021 reporting.
  Task       41 on host d021 reporting.
  Task       42 on host d021 reporting.
  Task       43 on host d021 reporting.
  Task       44 on host d021 reporting.
  Task       45 on host d021 reporting.
  Task       46 on host d021 reporting.
  Task       47 on host d021 reporting.
  Task       48 on host d021 reporting.
  Task       49 on host d021 reporting.
  Task       50 on host d021 reporting.
  Task       51 on host d021 reporting.
  Task       52 on host d021 reporting.
  Task       53 on host d021 reporting.
  Task       54 on host d021 reporting.
  Task       55 on host d021 reporting.

  Performing system and environment tests:
  *** Environment variable OMP_NUM_THREADS is not set
  *** For performance reasons you might want to set it to 1
  | Stacksize not measured: no C compiler
  | Checking for scalapack...
  | Testing pdtran()...
  | All pdtran() tests passed.

  Obtaining array dimensions for all initial allocations:
  
  -----------------------------------------------------------------------
  Parsing control.in (first pass over file, find array dimensions only).
  The contents of control.in will be repeated verbatim below
  unless switched off by setting 'verbatim_writeout .false.' .
  in the first line of control.in .
  -----------------------------------------------------------------------
  
  #===============================================================================
  # FHI-aims file: ./Runs/es/control.in
  # Created using the Atomic Simulation Environment (ASE)
  # Mon Jan 13 16:04:38 2020
  #===============================================================================
  xc                                 pbe
  relativistic                       zora scalar 1e-12
  occupation_type                    gaussian 0.0001
  load_balancing                     .true.
  KS_method                          scalapack_fast
  mixer                              pulay
  n_max_pulay                        5
  charge_mix_param                   0.4
  sc_accuracy_etot                   1e-6
  sc_accuracy_eev                    1e-4
  sc_accuracy_rho                    1e-6
  sc_iter_limit                      100
  prodbas_threshold                  1e-4
  basis_threshold                    1e-5
  override_illconditioning           .true.
  use_logsbt                         .true.
  spin                               none
  charge                             0
  #===============================================================================
  
  ################################################################################
  #
  #  FHI-aims code project
  # Volker Blum, Fritz Haber Institute Berlin, 2009
  #
  #  Suggested "tight" defaults for H atom (to be pasted into control.in file)
  #
  ################################################################################
    species        H
  #     global species definitions
      nucleus             1
      mass                1.00794
  #
      l_hartree           6
  #
      cut_pot             4.0  2.0  1.0
      basis_dep_cutoff    1e-4
  #
      radial_base         24 7.0
      radial_multiplier   2
      angular_grids       specified
        division   0.1930   50
        division   0.3175  110
        division   0.4293  194
        division   0.5066  302
        division   0.5626  434
  #      division   0.5922  590
  #      division   0.6227  974
  #      division   0.6868 1202
  #      outer_grid  770
        outer_grid  434
  ################################################################################
  #
  #  Definition of "minimal" basis
  #
  ################################################################################
  #     valence basis states
      valence      1  s   1.
  #     ion occupancy
      ion_occ      1  s   0.5
  ################################################################################
  #
  #  Suggested additional basis functions. For production calculations,
  #  uncomment them one after another (the most important basis functions are
  #  listed first).
  #
  #  Basis constructed for dimers: 0.5 A, 0.7 A, 1.0 A, 1.5 A, 2.5 A
  #
  ################################################################################
  #  "First tier" - improvements: -1014.90 meV to -62.69 meV
       hydro 2 s 2.1
       hydro 2 p 3.5
  #  "Second tier" - improvements: -12.89 meV to -1.83 meV
       hydro 1 s 0.85
       hydro 2 p 3.7
       hydro 2 s 1.2
       hydro 3 d 7
  #  "Third tier" - improvements: -0.25 meV to -0.12 meV
  #     hydro 4 f 11.2
  #     hydro 3 p 4.8
  #     hydro 4 d 9
  #     hydro 3 s 3.2
  ################################################################################
  #
  # For methods that use the localized form of the "resolution of identity" for
  # the two-electron Coulomb operator (RI_method LVL), particularly Hartree-Fock and
  # hybrid density functional calculations, the highest accuracy can be obtained by
  # uncommenting the line beginning with "for_aux"  below, thus adding an extra g radial
  # function to the construction of the product basis set for the expansion.
  # See Ref. New J. Phys. 17, 093020 (2015) for more information, particularly Figs. 1 and 6.
  #
  ################################################################################
  #
  # for_aux hydro 5 g 6.0
  ################################################################################
  #
  #  FHI-aims code project
  # Volker Blum, Fritz Haber Institute Berlin, 2009
  #
  #  Suggested "tight" defaults for C atom (to be pasted into control.in file)
  #
  ################################################################################
    species        C
  #     global species definitions
      nucleus             6
      mass                12.0107
  #
      l_hartree           6
  #
      cut_pot             4.0  2.0  1.0
      basis_dep_cutoff    1e-4
  #
      radial_base         34 7.0
      radial_multiplier   2
      angular_grids specified
        division   0.2187   50
        division   0.4416  110
        division   0.6335  194
        division   0.7727  302
        division   0.8772  434
  #      division   0.9334  590
  #      division   0.9924  770
  #      division   1.0230  974
  #      division   1.5020 1202
  #     outer_grid  974
        outer_grid  434
  ################################################################################
  #
  #  Definition of "minimal" basis
  #
  ################################################################################
  #     valence basis states
      valence      2  s   2.
      valence      2  p   2.
  #     ion occupancy
      ion_occ      2  s   1.
      ion_occ      2  p   1.
  ################################################################################
  #
  #  Suggested additional basis functions. For production calculations,
  #  uncomment them one after another (the most important basis functions are
  #  listed first).
  #
  #  Constructed for dimers: 1.0 A, 1.25 A, 1.5 A, 2.0 A, 3.0 A
  #
  ################################################################################
  #  "First tier" - improvements: -1214.57 meV to -155.61 meV
       hydro 2 p 1.7
       hydro 3 d 6
       hydro 2 s 4.9
  #  "Second tier" - improvements: -67.75 meV to -5.23 meV
       hydro 4 f 9.8
       hydro 3 p 5.2
       hydro 3 s 4.3
       hydro 5 g 14.4
       hydro 3 d 6.2
  #  "Third tier" - improvements: -2.43 meV to -0.60 meV
  #     hydro 2 p 5.6
  #     hydro 2 s 1.4
  #     hydro 3 d 4.9
  #     hydro 4 f 11.2
  #  "Fourth tier" - improvements: -0.39 meV to -0.18 meV
  #     hydro 2 p 2.1
  #     hydro 5 g 16.4
  #     hydro 4 d 13.2
  #     hydro 3 s 13.6
  #     hydro 4 f 17.6
  #  Further basis functions - improvements: -0.08 meV and below
  #     hydro 3 s 2
  #     hydro 3 p 6
  #     hydro 4 d 20
  ################################################################################
  #
  # For methods that use the localized form of the "resolution of identity" for
  # the two-electron Coulomb operator (RI_method LVL), particularly Hartree-Fock and
  # hybrid density functional calculations, the highest accuracy can be obtained by
  # uncommenting the line beginning with "for_aux"  below, thus adding an extra g radial
  # function to the construction of the product basis set for the expansion.
  # See Ref. New J. Phys. 17, 093020 (2015) for more information, particularly Figs. 1 and 6.
  #
  ################################################################################
  #
  # for_aux hydro 5 g 6.0
  
  -----------------------------------------------------------------------
  Completed first pass over input file control.in .
  -----------------------------------------------------------------------
  
  
  -----------------------------------------------------------------------
  Parsing geometry.in (first pass over file, find array dimensions only).
  The contents of geometry.in will be repeated verbatim below
  unless switched off by setting 'verbatim_writeout .false.' .
  in the first line of geometry.in .
  -----------------------------------------------------------------------
  
  #=======================================================
  # FHI-aims file: geometry.in
  # Created using the Atomic Simulation Environment (ASE)
  # Sun Jun 20 15:47:01 2021
  #=======================================================
  atom 12.9052620000000005 13.2342919999999999 76.6312599999999975 H
  atom 12.0824750000000005 13.5681290000000008 76.0023410000000013 C
  atom 11.0923359999999995 14.3831270000000000 76.5104070000000007 C
  atom 12.0913509999999995 13.1647789999999993 74.6825740000000025 C
  atom 10.0966489999999993 14.7487490000000001 75.6325659999999971 C
  atom 11.0890079999999998 14.8225750000000005 77.9293810000000065 C
  atom 11.0956639999999993 13.5304009999999995 73.8047339999999963 C
  atom 12.9148029999999991 12.5298160000000003 74.3618019999999973 H
  atom 9.2731969999999997 15.3837109999999999 75.9533389999999997 H
  atom 10.1055250000000001 14.3453979999999994 74.3127989999999983 C
  atom 10.1044149999999995 15.6346039999999995 78.4344399999999951 C
  atom 12.0797019999999993 14.4392779999999998 78.8072219999999959 C
  atom 11.0989920000000009 13.0909530000000007 72.3857589999999931 C
  atom 9.2827380000000002 14.6792350000000003 73.6838809999999995 H
  atom 9.2845689999999994 15.9783919999999995 77.8076259999999991 H
  atom 10.1049699999999998 16.0361030000000007 79.7572140000000047 C
  atom 12.8948339999999995 13.7959820000000004 78.4822410000000019 H
  atom 12.0891319999999993 14.8522689999999997 80.1269889999999947 C
  atom 10.1082979999999996 13.4742499999999996 71.5079190000000011 C
  atom 12.0835849999999994 12.2789230000000007 71.8807000000000045 C
  atom 9.2845689999999994 16.6749839999999985 80.0791889999999995 H
  atom 11.0901169999999993 15.6648569999999996 80.6350539999999967 C
  atom 12.9118630000000003 14.5163790000000006 80.7535019999999975 H
  atom 10.0988679999999995 13.0612580000000005 70.1881520000000023 C
  atom 9.2931659999999994 14.1175460000000008 71.8328999999999951 H
  atom 12.0830300000000008 11.8774250000000006 70.5579270000000065 C
  atom 12.9034309999999994 11.9351350000000007 72.5075140000000005 H
  atom 11.0978829999999995 16.1082539999999987 82.0450100000000049 C
  atom 9.2761370000000003 13.3971479999999996 69.5616380000000021 H
  atom 11.0978829999999995 12.2486709999999999 69.6800870000000003 C
  atom 12.9034309999999994 11.2385429999999999 70.2359519999999975 H
  atom 10.1138449999999995 16.9173830000000009 82.5560810000000060 C
  atom 12.0780379999999994 15.7333040000000004 82.9288630000000069 C
  atom 11.0901169999999993 11.8052740000000007 68.2701310000000063 C
  atom 9.2911699999999993 17.2629720000000013 81.9337770000000063 H
  atom 10.1110720000000001 17.3106019999999994 83.8818610000000007 C
  atom 12.8973300000000002 15.0916239999999995 82.6086920000000049 H
  atom 12.0791470000000007 16.1320790000000009 84.2456240000000065 C
  atom 10.1099619999999994 12.1802229999999998 67.3862780000000043 C
  atom 12.0741549999999993 10.9961450000000003 67.7590589999999935 C
  atom 9.2859549999999995 17.9449639999999988 84.2011300000000062 H
  atom 11.0873439999999999 16.9406500000000015 84.7536889999999943 C
  atom 12.9024880000000000 15.7931469999999994 84.8700330000000065 H
  atom 10.1088529999999999 11.7814479999999993 66.0695170000000047 C
  atom 9.2906700000000004 12.8219030000000007 67.7064490000000063 H
  atom 12.0769280000000006 10.6029250000000008 66.4332799999999963 C
  atom 12.8968299999999996 10.6505550000000007 68.3813640000000049 H
  atom 11.0956639999999993 17.3873970000000000 86.1816830000000067 C
  atom 9.2855120000000007 12.1203800000000008 65.4451080000000047 H
  atom 11.1006560000000007 10.9728779999999997 65.5614520000000027 C
  atom 12.9020449999999993 9.9685629999999996 66.1140099999999933 H
  atom 10.1055250000000001 18.1989769999999993 86.6626909999999953 C
  atom 12.0858039999999995 16.9647329999999990 87.0595229999999987 C
  atom 11.0923359999999995 10.5261309999999995 64.1334580000000045 C
  atom 9.3054810000000003 18.5480090000000004 86.0139309999999995 H
  atom 10.0844459999999998 18.6241549999999982 88.0004959999999983 C
  atom 12.0736000000000008 17.3776149999999987 88.4003340000000009 C
  atom 12.8927809999999994 16.3143470000000015 86.7318360000000013 H
  atom 10.1021959999999993 10.9487939999999995 63.2556170000000009 C
  atom 12.0824750000000005 9.7145510000000002 63.6524489999999972 C
  atom 9.2861770000000003 19.2811130000000013 88.3402080000000041 H
  atom 11.0662649999999996 18.1820060000000012 88.8512800000000027 C
  atom 12.8593879999999992 17.0290849999999985 89.0695369999999969 H
  atom 9.2952189999999995 11.5991809999999997 63.5833039999999983 H
  atom 10.1143999999999998 10.5359119999999997 61.9148059999999987 C
  atom 12.1035540000000008 9.2893729999999994 62.3146449999999987 C
  atom 12.8825190000000003 9.3655190000000008 64.3012099999999975 H
  atom 11.0479040000000008 18.4870550000000016 89.8986749999999972 H
  atom 9.3286119999999997 10.8844420000000000 61.2456030000000027 H
  atom 11.1217349999999993 9.7315220000000000 61.4638610000000014 C
  atom 12.9018230000000003 8.6324149999999999 61.9749320000000026 H
  atom 11.1400959999999998 9.4264720000000004 60.4164650000000023 H
  
  -----------------------------------------------------------------------
  Completed first pass over input file geometry.in .
  -----------------------------------------------------------------------
  

  Basic array size parameters:
  | Number of species                 :        2
  | Number of atoms                   :       72
  | Max. basis fn. angular momentum   :        4
  | Max. atomic/ionic basis occupied n:        2
  | Max. number of basis fn. types    :        2
  | Max. radial fns per species/type  :        8
  | Max. logarithmic grid size        :     1277
  | Max. radial integration grid size :       69
  | Max. angular integration grid size:      434
  | Max. angular grid division number :        8
  | Radial grid for Hartree potential :     1277
  | Number of spin channels           :        1

------------------------------------------------------------
          Reading file control.in.
------------------------------------------------------------
  XC: Using PBE gradient-corrected functionals.
  Scalar relativistic treatment of kinetic energy: ZORA.
  Threshold value for ZORA:   0.100000E-11
  Occupation type: Gaussian broadening, width =   0.100000E-03 eV.
  Since 'load_balancing .true.' is present in control.in, automatically turning on 'use_local_index .true.'.
  Using load balancing for integrations.
  Kohn-Sham electronic structure solved by the ELSI library.
  Using pulay charge density mixing.
  Pulay mixing - number of memorized iterations:    5
  Charge density mixing - mixing parameter:     0.4000
  Convergence accuracy of total energy:  0.1000E-05
  Convergence accuracy of sum of eigenvalues:  0.1000E-03
  Convergence accuracy of self-consistent charge density:  0.1000E-05
  Maximum number of s.-c. iterations  :   100
  * Ignoring prodbas_threshold
  Threshold for basis singularities:  0.1000E-04
  override_illconditioning: Explicitly overriding any built-in checks for an ill-conditioned overlap matrix.
  *** WARNING: If you use this flag, you should really know what you are doing.
  *** DO NOT keep this flag set by default in all your control.in files.
  Using 1D integrations for auxiliary 2-center integrals.
  Spin treatment: No spin polarisation.
  Charge =   0.000000E+00: Neutral system requested explicitly.
 
  Reading configuration options for species H                   .
  | Found nuclear charge :   1.0000
  | Found atomic mass :    1.00794000000000      amu
  | Found l_max for Hartree potential  :   6
  | Found cutoff potl. onset [A], width [A], scale factor :    4.00000    2.00000    1.00000
  | Threshold for basis-dependent cutoff potential is   0.100000E-03
  | Found data for basic radial integration grid :    24 points, outermost radius =    7.000 A
  | Found multiplier for basic radial grid :   2
  | Found angular grid specification: user-specified.
  | Specified grid contains     6 separate shells.
  | Check grid settings after all constraints further below.
  | Found free-atom valence shell :  1 s   1.000
  | No ionic wave fns used. Skipping ion_occ.
  | Found hydrogenic basis function :  2 s   2.100
  | Found hydrogenic basis function :  2 p   3.500
  | Found hydrogenic basis function :  1 s   0.850
  | Found hydrogenic basis function :  2 p   3.700
  | Found hydrogenic basis function :  2 s   1.200
  | Found hydrogenic basis function :  3 d   7.000
  Species H                   : Missing cutoff potential type.
  Defaulting to exp(1/x)/(1-x)^2 type cutoff potential.
  Species H : No 'logarithmic' tag. Using default grid for free atom:
  | Default logarithmic grid data [bohr] : 0.1000E-03 0.1000E+03 0.1012E+01
  Species H : On-site basis accuracy parameter (for Gram-Schmidt orthonormalisation) not specified.
  Using default value basis_acc =  0.1000000E-03.
  Species H                   : Using default innermost maximum threshold i_radial=  2 for radial functions.
  Species H                   : Default cutoff onset for free atom density etc. : 0.40000000E+01 AA.
  Species H                   : Basic radial grid will be enhanced according to radial_multiplier =   2, to contain    49 grid points.
 
  Reading configuration options for species C                   .
  | Found nuclear charge :   6.0000
  | Found atomic mass :    12.0107000000000      amu
  | Found l_max for Hartree potential  :   6
  | Found cutoff potl. onset [A], width [A], scale factor :    4.00000    2.00000    1.00000
  | Threshold for basis-dependent cutoff potential is   0.100000E-03
  | Found data for basic radial integration grid :    34 points, outermost radius =    7.000 A
  | Found multiplier for basic radial grid :   2
  | Found angular grid specification: user-specified.
  | Specified grid contains     6 separate shells.
  | Check grid settings after all constraints further below.
  | Found free-atom valence shell :  2 s   2.000
  | Found free-atom valence shell :  2 p   2.000
  | No ionic wave fns used. Skipping ion_occ.
  | No ionic wave fns used. Skipping ion_occ.
  | Found hydrogenic basis function :  2 p   1.700
  | Found hydrogenic basis function :  3 d   6.000
  | Found hydrogenic basis function :  2 s   4.900
  | Found hydrogenic basis function :  4 f   9.800
  | Found hydrogenic basis function :  3 p   5.200
  | Found hydrogenic basis function :  3 s   4.300
  | Found hydrogenic basis function :  5 g  14.400
  | Found hydrogenic basis function :  3 d   6.200
  Species C                   : Missing cutoff potential type.
  Defaulting to exp(1/x)/(1-x)^2 type cutoff potential.
  Species C : No 'logarithmic' tag. Using default grid for free atom:
  | Default logarithmic grid data [bohr] : 0.1000E-03 0.1000E+03 0.1012E+01
  Species C : On-site basis accuracy parameter (for Gram-Schmidt orthonormalisation) not specified.
  Using default value basis_acc =  0.1000000E-03.
  Species C                   : Using default innermost maximum threshold i_radial=  2 for radial functions.
  Species C                   : Default cutoff onset for free atom density etc. : 0.40000000E+01 AA.
  Species C                   : Basic radial grid will be enhanced according to radial_multiplier =   2, to contain    69 grid points.
 
  Finished reading input file 'control.in'. Consistency checks are next.
 
  MPI_IN_PLACE appears to work with this MPI implementation.
  | Keeping use_mpi_in_place .true. (see manual).
  Target number of points in a grid batch is not set. Defaulting to  100
  Method for grid partitioning is not set. Defaulting to parallel hash+maxmin partitioning.
  Batch size limit is not set. Defaulting to    200
  By default, will store active basis functions for each batch.
  If in need of memory, prune_basis_once .false. can be used to disable this option.
  communication_type for Hartree potential was not specified.
  Defaulting to calc_hartree .
  Pulay mixer: Number of initial linear mixing iterations not set.
  Defaulting to    0 iterations.
  Work space size for distributed Hartree potential not set.
  Defaulting to   0.200000E+03 MB.
  Algorithm-dependent basis array size parameters:
  | n_max_pulay                         :        5
  Presetting      1001 iterations before the initial mixing cycle
  is restarted anyway using the sc_init_iter criterion / keyword.
  Presetting a factor      1.000 between actual scf density residual
  and density convergence criterion sc_accuracy_rho below which sc_init_iter
  takes no effect.
  Calculation of forces was not defined in control.in. No forces will be calculated.
  Geometry relaxation not requested: no relaxation will be performed.
  No accuracy limit for integral partition fn. given. Defaulting to  0.1000E-14.
  No threshold value for u(r) in integrations given. Defaulting to  0.1000E-05.
  No accuracy for occupation numbers given. Defaulting to  0.1000E-12.
  No threshold value for occupation numbers given. Defaulting to  0.0000E+00.
  No accuracy for fermi level given. Defaulting to  0.1000E-19.
  Maximum # of iterations to find E_F not set. Defaulting to  200.
  Will not use alltoall communication since running on < 1024 CPUs.
  partition_type (choice of integration weights) for integrals was not specified.
  | Using a version of the partition function of Stratmann and coworkers ('stratmann_sparse').
  | At each grid point, the set of atoms used to build the partition table is smoothly restricted to
  | only those atoms whose free-atom density would be non-zero at that grid point.
  Partitioning for Hartree potential was not defined. Using partition_type for integrals.
  | Adjusted default value of keyword multip_moments_threshold to:       0.10000000E-11
  | This value may affect high angular momentum components of the Hartree potential in periodic systems.
  No q(lm)/r^(l+1) cutoff set for long-range Hartree potential.
  | Using default value of  0.100000E-09 .
  | Verify using the multipole_threshold keyword.
  Defaulting to new monopole extrapolation.
  Density update method: automatic selection selected.
 * Warning: use_local_index and/or load_balancing needs packed_matrix_format = index
 * Changing the default setting to packed_matrix_format = index
------------------------------------------------------------


------------------------------------------------------------
          Reading geometry description geometry.in.
------------------------------------------------------------
  Input structure read successfully.
  The structure contains       72 atoms,  and a total of        282.000 electrons.

  Input geometry:
  | No unit cell requested.
  | Atomic structure:
  |       Atom                x [A]            y [A]            z [A]
  |    1: Species H            12.90526200       13.23429200       76.63126000
  |    2: Species C            12.08247500       13.56812900       76.00234100
  |    3: Species C            11.09233600       14.38312700       76.51040700
  |    4: Species C            12.09135100       13.16477900       74.68257400
  |    5: Species C            10.09664900       14.74874900       75.63256600
  |    6: Species C            11.08900800       14.82257500       77.92938100
  |    7: Species C            11.09566400       13.53040100       73.80473400
  |    8: Species H            12.91480300       12.52981600       74.36180200
  |    9: Species H             9.27319700       15.38371100       75.95333900
  |   10: Species C            10.10552500       14.34539800       74.31279900
  |   11: Species C            10.10441500       15.63460400       78.43444000
  |   12: Species C            12.07970200       14.43927800       78.80722200
  |   13: Species C            11.09899200       13.09095300       72.38575900
  |   14: Species H             9.28273800       14.67923500       73.68388100
  |   15: Species H             9.28456900       15.97839200       77.80762600
  |   16: Species C            10.10497000       16.03610300       79.75721400
  |   17: Species H            12.89483400       13.79598200       78.48224100
  |   18: Species C            12.08913200       14.85226900       80.12698900
  |   19: Species C            10.10829800       13.47425000       71.50791900
  |   20: Species C            12.08358500       12.27892300       71.88070000
  |   21: Species H             9.28456900       16.67498400       80.07918900
  |   22: Species C            11.09011700       15.66485700       80.63505400
  |   23: Species H            12.91186300       14.51637900       80.75350200
  |   24: Species C            10.09886800       13.06125800       70.18815200
  |   25: Species H             9.29316600       14.11754600       71.83290000
  |   26: Species C            12.08303000       11.87742500       70.55792700
  |   27: Species H            12.90343100       11.93513500       72.50751400
  |   28: Species C            11.09788300       16.10825400       82.04501000
  |   29: Species H             9.27613700       13.39714800       69.56163800
  |   30: Species C            11.09788300       12.24867100       69.68008700
  |   31: Species H            12.90343100       11.23854300       70.23595200
  |   32: Species C            10.11384500       16.91738300       82.55608100
  |   33: Species C            12.07803800       15.73330400       82.92886300
  |   34: Species C            11.09011700       11.80527400       68.27013100
  |   35: Species H             9.29117000       17.26297200       81.93377700
  |   36: Species C            10.11107200       17.31060200       83.88186100
  |   37: Species H            12.89733000       15.09162400       82.60869200
  |   38: Species C            12.07914700       16.13207900       84.24562400
  |   39: Species C            10.10996200       12.18022300       67.38627800
  |   40: Species C            12.07415500       10.99614500       67.75905900
  |   41: Species H             9.28595500       17.94496400       84.20113000
  |   42: Species C            11.08734400       16.94065000       84.75368900
  |   43: Species H            12.90248800       15.79314700       84.87003300
  |   44: Species C            10.10885300       11.78144800       66.06951700
  |   45: Species H             9.29067000       12.82190300       67.70644900
  |   46: Species C            12.07692800       10.60292500       66.43328000
  |   47: Species H            12.89683000       10.65055500       68.38136400
  |   48: Species C            11.09566400       17.38739700       86.18168300
  |   49: Species H             9.28551200       12.12038000       65.44510800
  |   50: Species C            11.10065600       10.97287800       65.56145200
  |   51: Species H            12.90204500        9.96856300       66.11401000
  |   52: Species C            10.10552500       18.19897700       86.66269100
  |   53: Species C            12.08580400       16.96473300       87.05952300
  |   54: Species C            11.09233600       10.52613100       64.13345800
  |   55: Species H             9.30548100       18.54800900       86.01393100
  |   56: Species C            10.08444600       18.62415500       88.00049600
  |   57: Species C            12.07360000       17.37761500       88.40033400
  |   58: Species H            12.89278100       16.31434700       86.73183600
  |   59: Species C            10.10219600       10.94879400       63.25561700
  |   60: Species C            12.08247500        9.71455100       63.65244900
  |   61: Species H             9.28617700       19.28111300       88.34020800
  |   62: Species C            11.06626500       18.18200600       88.85128000
  |   63: Species H            12.85938800       17.02908500       89.06953700
  |   64: Species H             9.29521900       11.59918100       63.58330400
  |   65: Species C            10.11440000       10.53591200       61.91480600
  |   66: Species C            12.10355400        9.28937300       62.31464500
  |   67: Species H            12.88251900        9.36551900       64.30121000
  |   68: Species H            11.04790400       18.48705500       89.89867500
  |   69: Species H             9.32861200       10.88444200       61.24560300
  |   70: Species C            11.12173500        9.73152200       61.46386100
  |   71: Species H            12.90182300        8.63241500       61.97493200
  |   72: Species H            11.14009600        9.42647200       60.41646500
  |

  | The smallest distance between any two atoms is         1.08701085 AA.
  |
  | The first atom of this pair is atom number                     53 .
  | The second atom of this pair is atom number                    58 .

  Number of empty states per atom not set in control.in - providing a guess from actual geometry.
  | Total number of empty states used during s.c.f. cycle:      171
  If you use a very high smearing, use empty_states (per atom!) in control.in to increase this value.

  Structure-dependent array size parameters: 
  | Maximum number of distinct radial functions  :       18
  | Maximum number of basis functions            :     2088
  | Number of Kohn-Sham states (occupied + empty):      312
------------------------------------------------------------

------------------------------------------------------------
          Preparing all fixed parts of the calculation.
------------------------------------------------------------
  Determining machine precision:
    2.225073858507201E-308
  Setting up grids for atomic and cluster calculations.

  Creating wave function, potential, and density for free atoms.

  Species: H

  List of occupied orbitals and eigenvalues:
    n    l              occ      energy [Ha]    energy [eV]
    1    0           1.0000        -0.238386        -6.4868


  Species: C

  List of occupied orbitals and eigenvalues:
    n    l              occ      energy [Ha]    energy [eV]
    1    0           2.0000       -10.049212      -273.4530
    2    0           2.0000        -0.504761       -13.7352
    2    1           2.0000        -0.193631        -5.2690

  Creating fixed part of basis set: Ionic, confined, hydrogenic.
 
  H                    hydrogenic:
 
  List of hydrogenic basis orbitals: 
    n    l      effective z      eigenvalue [eV]  inner max. [A]     outer max. [A]     outer radius [A]   
    2    0         2.100000       -14.9965           0.193243           1.317208           5.373006
    2    1         3.500000       -41.6672           0.602369           0.602369           4.056063
    1    0         0.850000        -9.8292           0.624871           0.624871           5.373006
    2    1         3.700000       -46.5653           0.573622           0.573622           3.910002
    2    0         1.200000        -4.5995           0.334980           2.228188           5.505995
    3    2         7.000000       -74.0753           0.680699           0.680699           3.769201
 
 
  C                    hydrogenic:
 
  List of hydrogenic basis orbitals: 
    n    l      effective z      eigenvalue [eV]  inner max. [A]     outer max. [A]     outer radius [A]   
    2    1         1.700000        -9.8152           1.245706           1.245706           5.401630
    3    2         6.000000       -54.4226           0.792453           0.792453           4.178599
    2    0         4.900000       -81.6681           0.082559           0.562749           3.353238
    4    3         9.800000       -81.6681           0.863254           0.863254           4.028125
    3    1         5.200000       -40.8774           0.305389           1.215618           4.898362
    3    0         4.300000       -27.9508           0.091041           1.610311           5.401630
    5    4        14.400000      -112.8510           0.917666           0.917666           3.883070
    3    2         6.200000       -58.1113           0.763917           0.763917           4.077671
 

  Adding cutoff potential to free-atom effective potential.
  Creating atomic-like basis functions for current effective potential.

  Species H                   :

  List of atomic basis orbitals and eigenvalues:
    n    l      energy [Ha]    energy [eV]    outer radius [A]
    1    0        -0.238386        -6.4868       5.373006


  Species C                   :

  List of atomic basis orbitals and eigenvalues:
    n    l      energy [Ha]    energy [eV]    outer radius [A]
    1    0       -10.049212      -273.4530       1.934409
    2    0        -0.504761       -13.7352       5.271162
    2    1        -0.193631        -5.2690       5.401630

  Assembling full basis from fixed parts.
  | Species H :   atomic orbital   1 s accepted.
  | Species H :    hydro orbital   2 s accepted.
  | Species H :    hydro orbital   1 s accepted.
  | Species H :    hydro orbital   2 s accepted.
  | Species H :    hydro orbital   2 p accepted.
  | Species H :    hydro orbital   2 p accepted.
  | Species H :    hydro orbital   3 d accepted.
  | Species C :   atomic orbital   1 s accepted.
  | Species C :    hydro orbital   2 s accepted.
  | Species C :   atomic orbital   2 s accepted.
  | Species C :    hydro orbital   3 s accepted.
  | Species C :    hydro orbital   3 p accepted.
  | Species C :   atomic orbital   2 p accepted.
  | Species C :    hydro orbital   2 p accepted.
  | Species C :    hydro orbital   3 d accepted.
  | Species C :    hydro orbital   3 d accepted.
  | Species C :    hydro orbital   4 f accepted.
  | Species C :    hydro orbital   5 g accepted.
 
  Basis size parameters after reduction:
  | Total number of radial functions:       18
  | Total number of basis functions :     2088
 
  Per-task memory consumption for arrays in subroutine allocate_ext:
  |           4.461976MB.
  Testing on-site integration grid accuracy.
  |  Species  Function  <phi|h_atom|phi> (log., in eV)  <phi|h_atom|phi> (rad., in eV)
           1        1                 -6.4870767962                 -6.4871688290
           1        2                 13.5032046589                 13.5028982997
           1        3                 32.8195184817                 32.8119941656
           1        4                 33.8513856511                 33.7670005767 ***
           1        5                 28.8544614965                 28.8544615203
           1        6                 59.6326952547                 59.6327656460
           1        7                 60.2719308513                 60.2719305949
           2        8               -273.4529726040               -273.4529710464
           2        9                -10.7721037319                -10.7721022101
           2       10                 17.6044132601                 17.6044162063
           2       11                 53.7706460658                 53.7706913770
           2       12                 15.0973290362                 15.0973256030
           2       13                  3.8545134692                  3.8545724687
           2       14                 12.1156992592                 12.1182024431
           2       15                 29.4352039302                 29.4352041816
           2       16                 54.8741144708                 54.8740268729
           2       17                 59.3556032049                 59.3556031382
           2       18                 93.4551837154                 93.4551838009
 * Note: Onsite integrals marked "***" above are less accurate than
 * onsite_accuracy_threshold =    0.03000 eV. Usually, this is harmless.
 * When in doubt, tighten the "radial" and/or "radial_multiplier" flags to check.

  Preparing densities etc. for the partition functions (integrals / Hartree potential).

  Preparations completed.
  max(cpu_time)          :      0.193 s.
  Wall clock time (cpu1) :      0.176 s.
------------------------------------------------------------

------------------------------------------------------------
          Begin self-consistency loop: Initialization.

          Date     :  20210620, Time     :  173006.093
------------------------------------------------------------

  Initializing index lists of integration centers etc. from given atomic structure:
  | Number of centers in hartree potential         :        72
  | Number of centers in hartree multipole         :        72
  | Number of centers in electron density summation:        72
  | Number of centers in basis integrals           :        72
  | Number of centers in integrals                 :        72
  | Number of centers in hamiltonian               :        72
  * Using 56 tasks for Scalapack Eigenvalue solver.
  Detailed listing of tasks and assigned k-points:
  (for non-periodic systems, the "k-point" denotes an internal label only)
   Task     0 k-point     1 on d021
   Task     1 k-point     1 on d021
   Task     2 k-point     1 on d021
   Task     3 k-point     1 on d021
   Task     4 k-point     1 on d021
   Task     5 k-point     1 on d021
   Task     6 k-point     1 on d021
   Task     7 k-point     1 on d021
   Task     8 k-point     1 on d021
   Task     9 k-point     1 on d021
   Task    10 k-point     1 on d021
   Task    11 k-point     1 on d021
   Task    12 k-point     1 on d021
   Task    13 k-point     1 on d021
   Task    14 k-point     1 on d021
   Task    15 k-point     1 on d021
   Task    16 k-point     1 on d021
   Task    17 k-point     1 on d021
   Task    18 k-point     1 on d021
   Task    19 k-point     1 on d021
   Task    20 k-point     1 on d021
   Task    21 k-point     1 on d021
   Task    22 k-point     1 on d021
   Task    23 k-point     1 on d021
   Task    24 k-point     1 on d021
   Task    25 k-point     1 on d021
   Task    26 k-point     1 on d021
   Task    27 k-point     1 on d021
   Task    28 k-point     1 on d021
   Task    29 k-point     1 on d021
   Task    30 k-point     1 on d021
   Task    31 k-point     1 on d021
   Task    32 k-point     1 on d021
   Task    33 k-point     1 on d021
   Task    34 k-point     1 on d021
   Task    35 k-point     1 on d021
   Task    36 k-point     1 on d021
   Task    37 k-point     1 on d021
   Task    38 k-point     1 on d021
   Task    39 k-point     1 on d021
   Task    40 k-point     1 on d021
   Task    41 k-point     1 on d021
   Task    42 k-point     1 on d021
   Task    43 k-point     1 on d021
   Task    44 k-point     1 on d021
   Task    45 k-point     1 on d021
   Task    46 k-point     1 on d021
   Task    47 k-point     1 on d021
   Task    48 k-point     1 on d021
   Task    49 k-point     1 on d021
   Task    50 k-point     1 on d021
   Task    51 k-point     1 on d021
   Task    52 k-point     1 on d021
   Task    53 k-point     1 on d021
   Task    54 k-point     1 on d021
   Task    55 k-point     1 on d021
  Tasks:    56 split into      8 X      7 BLACS grid
  Calculating block size based on n_basis =         2088 max_nprow =            8 max_npcol =            7
  ScaLAPACK block size set to:           16
  Allocating        0.662 MB for ovlp
  Allocating        0.662 MB for ham
  Allocating        0.662 MB for eigenvec
  Required Scalapack workspace - INTEGER:            1 REAL:             1
  Partitioning the integration grid into batches with parallel hashing+maxmin method.
  | Number of batches:    13339
  | Maximal batch size:     183
  | Minimal batch size:       2
  | Average batch size:      89.420
  | Standard deviation of batch sizes:      32.039

  Integration load balanced across     56 MPI tasks.
  Work distribution over tasks is as follows:
  Task      0 has      21390 integration points.
  Task      1 has      21340 integration points.
  Task      2 has      21227 integration points.
  Task      3 has      21429 integration points.
  Task      4 has      21198 integration points.
  Task      5 has      21379 integration points.
  Task      6 has      21202 integration points.
  Task      7 has      21375 integration points.
  Task      8 has      21328 integration points.
  Task      9 has      21203 integration points.
  Task     10 has      21349 integration points.
  Task     11 has      21309 integration points.
  Task     12 has      21290 integration points.
  Task     13 has      21250 integration points.
  Task     14 has      21377 integration points.
  Task     15 has      21345 integration points.
  Task     16 has      21279 integration points.
  Task     17 has      21417 integration points.
  Task     18 has      21184 integration points.
  Task     19 has      21287 integration points.
  Task     20 has      21243 integration points.
  Task     21 has      21310 integration points.
  Task     22 has      21330 integration points.
  Task     23 has      21252 integration points.
  Task     24 has      21350 integration points.
  Task     25 has      21240 integration points.
  Task     26 has      21292 integration points.
  Task     27 has      21252 integration points.
  Task     28 has      21339 integration points.
  Task     29 has      21362 integration points.
  Task     30 has      21292 integration points.
  Task     31 has      21375 integration points.
  Task     32 has      21262 integration points.
  Task     33 has      21278 integration points.
  Task     34 has      21254 integration points.
  Task     35 has      21325 integration points.
  Task     36 has      21307 integration points.
  Task     37 has      21234 integration points.
  Task     38 has      21324 integration points.
  Task     39 has      21305 integration points.
  Task     40 has      21328 integration points.
  Task     41 has      21195 integration points.
  Task     42 has      21334 integration points.
  Task     43 has      21312 integration points.
  Task     44 has      21272 integration points.
  Task     45 has      21372 integration points.
  Task     46 has      21326 integration points.
  Task     47 has      21242 integration points.
  Task     48 has      21235 integration points.
  Task     49 has      21381 integration points.
  Task     50 has      21340 integration points.
  Task     51 has      21217 integration points.
  Task     52 has      21316 integration points.
  Task     53 has      21303 integration points.
  Task     54 has      21283 integration points.
  Task     55 has      21236 integration points.
  Initializing partition tables, free-atom densities, potentials, etc. across the integration grid (initialize_grid_storage).
  | initialize_grid_storage: Actual outermost partition radius vs. multipole_radius_free
  | (-- VB: in principle, multipole_radius_free should be larger, hence this output)
  | Species        1: Confinement radius =              6.000000000000000 AA, multipole_radius_free =              6.071692442739658 AA.
  | Species        1: outer_partition_radius set to              6.071692442739658 AA .
  | Species        2: Confinement radius =              6.000000000000000 AA, multipole_radius_free =              6.029870734432609 AA.
  | Species        2: outer_partition_radius set to              6.029870734432609 AA .
  | The sparse table of interatomic distances needs     44.3560 kbyte instead of    41.4720 kbyte of memory.
  | Using the partition_type stratmann_smoother will reduce your memory usage.
  | Net number of integration points:  1192776
  | of which are non-zero points    :   957748
  Renormalizing the initial density to the exact electron count on the 3D integration grid.
  | Initial density: Formal number of electrons (from input files) :     282.0000000000
  | Integrated number of electrons on 3D grid     :     281.9993223646
  | Charge integration error                      :      -0.0006776354
  | Normalization factor for density and gradient :       1.0000024030
  Obtaining max. number of non-zero basis functions in each batch (get_n_compute_maxes).
  | Maximal number of non-zero basis functions:      648
  Selecting the method for density update.
  Loop over occupied states selected for charge density update.
  Hamiltonian matrix size:
  | Size of matrix non-packed:               2180916
  | Size of matrix packed:         1069724
  Allocating        5.212 MB for KS_eigenvector
  use_local_index: Max. local matrix size =       491541
  Task:     0 matrix size:      71631
  Task:     1 matrix size:     291377
  Task:     2 matrix size:     288450
  Task:     3 matrix size:      80200
  Task:     4 matrix size:     133896
  Task:     5 matrix size:     290182
  Task:     6 matrix size:     255811
  Task:     7 matrix size:     131309
  Task:     8 matrix size:     308168
  Task:     9 matrix size:     291034
  Task:    10 matrix size:     146582
  Task:    11 matrix size:     222757
  Task:    12 matrix size:     310506
  Task:    13 matrix size:     307472
  Task:    14 matrix size:     441318
  Task:    15 matrix size:     462017
  Task:    16 matrix size:     478754
  Task:    17 matrix size:     422616
  Task:    18 matrix size:     383917
  Task:    19 matrix size:     342905
  Task:    20 matrix size:     309825
  Task:    21 matrix size:     448354
  Task:    22 matrix size:     418627
  Task:    23 matrix size:     375690
  Task:    24 matrix size:     381901
  Task:    25 matrix size:     314826
  Task:    26 matrix size:     480144
  Task:    27 matrix size:     471140
  Task:    28 matrix size:     465313
  Task:    29 matrix size:     469368
  Task:    30 matrix size:     491541
  Task:    31 matrix size:     399737
  Task:    32 matrix size:     455827
  Task:    33 matrix size:     341967
  Task:    34 matrix size:     314564
  Task:    35 matrix size:     441278
  Task:    36 matrix size:     442234
  Task:    37 matrix size:     381685
  Task:    38 matrix size:     466459
  Task:    39 matrix size:     465033
  Task:    40 matrix size:     471443
  Task:    41 matrix size:     447230
  Task:    42 matrix size:     274176
  Task:    43 matrix size:     272964
  Task:    44 matrix size:     182797
  Task:    45 matrix size:     295551
  Task:    46 matrix size:     299611
  Task:    47 matrix size:     188086
  Task:    48 matrix size:     120786
  Task:    49 matrix size:     271354
  Task:    50 matrix size:     168790
  Task:    51 matrix size:      93961
  Task:    52 matrix size:     290742
  Task:    53 matrix size:     290335
  Task:    54 matrix size:     115921
  Task:    55 matrix size:     111628
  Integrating Hamiltonian matrix: batch-based integration.
  Time summed over all CPUs for integration: real work      176.572 s, elapsed      251.204 s
  Time get_set_sparse_local_matrix_scalapack:     0.012864 s
  Start compute_balanced_batch_distribution
  Done load balancing, time needed:      0.013 s
  Integrating overlap matrix with loadbalancing
  Time summed over all CPUs for integration: real work       51.807 s, elapsed       58.093 s
  Time get_set_full_local_matrix_scalapack:     0.014103 s

  Updating Kohn-Sham eigenvalues and eigenvectors using ELSI and the ELPA eigensolver.
  Overlap matrix is not singular
  | Lowest and highest eigenvalues :  0.10E+02,  0.71E-04
  Finished singularity check of overlap matrix
  | Time :     0.162 s
  Finished Cholesky decomposition
  | Time :     0.035 s
  Finished transformation to standard eigenproblem
  | Time :     0.048 s
  Starting ELPA eigensolver
  Finished solving standard eigenproblem
  | Time :     0.178 s
  Finished back-transformation of eigenvectors
  | Time :     0.008 s

  Obtaining occupation numbers and chemical potential using ELSI.
  | Chemical potential (Fermi level):    -8.17085800 eV
  Writing Kohn-Sham eigenvalues.

  State    Occupation    Eigenvalue [Ha]    Eigenvalue [eV]
      1       2.00000         -10.177949         -276.95609
      2       2.00000         -10.177949         -276.95609
      3       2.00000         -10.177479         -276.94328
      4       2.00000         -10.177479         -276.94328
      5       2.00000         -10.177130         -276.93381
      6       2.00000         -10.177130         -276.93381
      7       2.00000         -10.176326         -276.91193
      8       2.00000         -10.176326         -276.91192
      9       2.00000         -10.176269         -276.91036
     10       2.00000         -10.176269         -276.91036
     11       2.00000         -10.175939         -276.90139
     12       2.00000         -10.175939         -276.90139
     13       2.00000         -10.175764         -276.89663
     14       2.00000         -10.175764         -276.89663
     15       2.00000         -10.175612         -276.89248
     16       2.00000         -10.175597         -276.89207
     17       2.00000         -10.175026         -276.87654
     18       2.00000         -10.175009         -276.87608
     19       2.00000         -10.174940         -276.87421
     20       2.00000         -10.174940         -276.87421
     21       2.00000         -10.173940         -276.84699
     22       2.00000         -10.173940         -276.84699
     23       2.00000         -10.173362         -276.83127
     24       2.00000         -10.173362         -276.83127
     25       2.00000         -10.173024         -276.82207
     26       2.00000         -10.173024         -276.82207
     27       2.00000         -10.172806         -276.81614
     28       2.00000         -10.172806         -276.81614
     29       2.00000         -10.172259         -276.80124
     30       2.00000         -10.172259         -276.80124
     31       2.00000         -10.171922         -276.79209
     32       2.00000         -10.171922         -276.79209
     33       2.00000         -10.171104         -276.76982
     34       2.00000         -10.171104         -276.76981
     35       2.00000         -10.171004         -276.76709
     36       2.00000         -10.171004         -276.76709
     37       2.00000         -10.170093         -276.74232
     38       2.00000         -10.170092         -276.74227
     39       2.00000         -10.170037         -276.74080
     40       2.00000         -10.170037         -276.74079
     41       2.00000         -10.168858         -276.70870
     42       2.00000         -10.168858         -276.70869
     43       2.00000          -1.023191          -27.84246
     44       2.00000          -1.021678          -27.80128
     45       2.00000          -1.016249          -27.65355
     46       2.00000          -1.009234          -27.46265
     47       2.00000          -1.002254          -27.27272
     48       2.00000          -0.997740          -27.14989
     49       2.00000          -0.994611          -27.06474
     50       2.00000          -0.944260          -25.69462
     51       2.00000          -0.935305          -25.45093
     52       2.00000          -0.920314          -25.04303
     53       2.00000          -0.904602          -24.61549
     54       2.00000          -0.897835          -24.43133
     55       2.00000          -0.896359          -24.39117
     56       2.00000          -0.893519          -24.31388
     57       2.00000          -0.889133          -24.19455
     58       2.00000          -0.888634          -24.18096
     59       2.00000          -0.885149          -24.08613
     60       2.00000          -0.882541          -24.01516
     61       2.00000          -0.881918          -23.99821
     62       2.00000          -0.872905          -23.75295
     63       2.00000          -0.859859          -23.39796
     64       2.00000          -0.796594          -21.67643
     65       2.00000          -0.782452          -21.29160
     66       2.00000          -0.781839          -21.27493
     67       2.00000          -0.777421          -21.15469
     68       2.00000          -0.768228          -20.90454
     69       2.00000          -0.763953          -20.78822
     70       2.00000          -0.757268          -20.60632
     71       2.00000          -0.748188          -20.35922
     72       2.00000          -0.745436          -20.28434
     73       2.00000          -0.736128          -20.03105
     74       2.00000          -0.733952          -19.97185
     75       2.00000          -0.728658          -19.82781
     76       2.00000          -0.725420          -19.73970
     77       2.00000          -0.723407          -19.68491
     78       2.00000          -0.690810          -18.79789
     79       2.00000          -0.686432          -18.67877
     80       2.00000          -0.677620          -18.43898
     81       2.00000          -0.666362          -18.13262
     82       2.00000          -0.663924          -18.06628
     83       2.00000          -0.654655          -17.81408
     84       2.00000          -0.652409          -17.75295
     85       2.00000          -0.641090          -17.44494
     86       2.00000          -0.634421          -17.26349
     87       2.00000          -0.628608          -17.10530
     88       2.00000          -0.619008          -16.84408
     89       2.00000          -0.611992          -16.65314
     90       2.00000          -0.611439          -16.63810
     91       2.00000          -0.609977          -16.59832
     92       2.00000          -0.606004          -16.49021
     93       2.00000          -0.595208          -16.19644
     94       2.00000          -0.591531          -16.09637
     95       2.00000          -0.589188          -16.03263
     96       2.00000          -0.583217          -15.87014
     97       2.00000          -0.577874          -15.72474
     98       2.00000          -0.575327          -15.65544
     99       2.00000          -0.574849          -15.64244
    100       2.00000          -0.571161          -15.54209
    101       2.00000          -0.567727          -15.44865
    102       2.00000          -0.565592          -15.39054
    103       2.00000          -0.563928          -15.34527
    104       2.00000          -0.562878          -15.31668
    105       2.00000          -0.559848          -15.23423
    106       2.00000          -0.555195          -15.10764
    107       2.00000          -0.552022          -15.02128
    108       2.00000          -0.545125          -14.83361
    109       2.00000          -0.536349          -14.59480
    110       2.00000          -0.533718          -14.52322
    111       2.00000          -0.530636          -14.43934
    112       2.00000          -0.527388          -14.35095
    113       2.00000          -0.519352          -14.13228
    114       2.00000          -0.519182          -14.12767
    115       2.00000          -0.517030          -14.06910
    116       2.00000          -0.513190          -13.96460
    117       2.00000          -0.512291          -13.94015
    118       2.00000          -0.510311          -13.88628
    119       2.00000          -0.506391          -13.77961
    120       2.00000          -0.502042          -13.66125
    121       2.00000          -0.500849          -13.62879
    122       2.00000          -0.499930          -13.60379
    123       2.00000          -0.497884          -13.54813
    124       2.00000          -0.494416          -13.45373
    125       2.00000          -0.490125          -13.33697
    126       2.00000          -0.483390          -13.15371
    127       2.00000          -0.478542          -13.02180
    128       2.00000          -0.459960          -12.51614
    129       2.00000          -0.446994          -12.16332
    130       2.00000          -0.429369          -11.68373
    131       2.00000          -0.411787          -11.20530
    132       2.00000          -0.410367          -11.16666
    133       2.00000          -0.409349          -11.13894
    134       2.00000          -0.407739          -11.09515
    135       2.00000          -0.405070          -11.02252
    136       2.00000          -0.403080          -10.96835
    137       2.00000          -0.400437          -10.89643
    138       2.00000          -0.400211          -10.89029
    139       2.00000          -0.393528          -10.70844
    140       2.00000          -0.377241          -10.26525
    141       2.00000          -0.363851           -9.90089
    142       0.00000          -0.260199           -7.08037
    143       0.00000          -0.245365           -6.67673
    144       0.00000          -0.225811           -6.14463
    145       0.00000          -0.223734           -6.08810
    146       0.00000          -0.221637           -6.03106
    147       0.00000          -0.217252           -5.91174
    148       0.00000          -0.212201           -5.77427
    149       0.00000          -0.206447           -5.61772
    150       0.00000          -0.204607           -5.56765
    151       0.00000          -0.201207           -5.47511
    152       0.00000          -0.197720           -5.38023
    153       0.00000          -0.182642           -4.96994
    154       0.00000          -0.160487           -4.36707
    155       0.00000          -0.141621           -3.85369
    156       0.00000          -0.094397           -2.56867
    157       0.00000          -0.079737           -2.16975
    158       0.00000          -0.079367           -2.15969
    159       0.00000          -0.078368           -2.13251
    160       0.00000          -0.076134           -2.07171
    161       0.00000          -0.072002           -1.95927
    162       0.00000          -0.068850           -1.87351
    163       0.00000          -0.066253           -1.80284
    164       0.00000          -0.063073           -1.71630
    165       0.00000          -0.061740           -1.68002
    166       0.00000          -0.057505           -1.56478
    167       0.00000          -0.054113           -1.47249
    168       0.00000          -0.046232           -1.25803
    169       0.00000          -0.044370           -1.20738
    170       0.00000          -0.042994           -1.16994
    171       0.00000          -0.032127           -0.87421
    172       0.00000          -0.028857           -0.78523
    173       0.00000          -0.028055           -0.76342
    174       0.00000          -0.024763           -0.67385
    175       0.00000          -0.024300           -0.66123
    176       0.00000          -0.016275           -0.44288
    177       0.00000          -0.015863           -0.43165
    178       0.00000          -0.014746           -0.40125
    179       0.00000          -0.014510           -0.39482
    180       0.00000          -0.010436           -0.28398
    181       0.00000          -0.010164           -0.27657
    182       0.00000          -0.009233           -0.25123
    183       0.00000          -0.006715           -0.18273
    184       0.00000          -0.003388           -0.09220
    185       0.00000          -0.000661           -0.01799
    186       0.00000           0.005965            0.16232
    187       0.00000           0.009084            0.24719
    188       0.00000           0.011550            0.31429
    189       0.00000           0.011683            0.31792
    190       0.00000           0.016506            0.44916
    191       0.00000           0.019298            0.52512
    192       0.00000           0.020645            0.56178
    193       0.00000           0.023576            0.64155
    194       0.00000           0.027760            0.75539
    195       0.00000           0.028329            0.77086
    196       0.00000           0.028840            0.78478
    197       0.00000           0.032738            0.89086
    198       0.00000           0.034248            0.93193
    199       0.00000           0.036328            0.98854
    200       0.00000           0.036535            0.99417
    201       0.00000           0.037765            1.02764
    202       0.00000           0.038270            1.04138
    203       0.00000           0.039949            1.08707
    204       0.00000           0.041874            1.13945
    205       0.00000           0.043444            1.18216
    206       0.00000           0.044897            1.22170
    207       0.00000           0.048146            1.31013
    208       0.00000           0.049045            1.33459
    209       0.00000           0.052780            1.43623
    210       0.00000           0.054612            1.48608
    211       0.00000           0.056707            1.54307
    212       0.00000           0.058970            1.60467
    213       0.00000           0.062154            1.69130
    214       0.00000           0.066819            1.81824
    215       0.00000           0.068675            1.86875
    216       0.00000           0.069089            1.88002
    217       0.00000           0.070881            1.92878
    218       0.00000           0.073415            1.99771
    219       0.00000           0.076712            2.08744
    220       0.00000           0.078383            2.13291
    221       0.00000           0.078725            2.14221
    222       0.00000           0.081721            2.22375
    223       0.00000           0.083886            2.28265
    224       0.00000           0.083987            2.28540
    225       0.00000           0.086594            2.35635
    226       0.00000           0.092282            2.51113
    227       0.00000           0.093930            2.55596
    228       0.00000           0.094230            2.56412
    229       0.00000           0.097697            2.65848
    230       0.00000           0.097884            2.66355
    231       0.00000           0.100070            2.72303
    232       0.00000           0.102394            2.78628
    233       0.00000           0.107029            2.91239
    234       0.00000           0.107657            2.92951
    235       0.00000           0.110344            3.00260
    236       0.00000           0.111036            3.02143
    237       0.00000           0.112307            3.05603
    238       0.00000           0.116296            3.16458
    239       0.00000           0.118112            3.21398
    240       0.00000           0.119769            3.25907
    241       0.00000           0.120511            3.27928
    242       0.00000           0.120761            3.28608
    243       0.00000           0.122117            3.32298
    244       0.00000           0.123090            3.34944
    245       0.00000           0.126531            3.44309
    246       0.00000           0.126957            3.45467
    247       0.00000           0.128149            3.48712
    248       0.00000           0.130632            3.55467
    249       0.00000           0.133403            3.63008
    250       0.00000           0.138412            3.76637
    251       0.00000           0.143787            3.91264
    252       0.00000           0.144388            3.92901
    253       0.00000           0.145189            3.95080
    254       0.00000           0.146994            3.99991
    255       0.00000           0.148670            4.04551
    256       0.00000           0.150043            4.08288
    257       0.00000           0.150611            4.09834
    258       0.00000           0.154050            4.19192
    259       0.00000           0.157164            4.27665
    260       0.00000           0.158929            4.32467
    261       0.00000           0.162098            4.41091
    262       0.00000           0.164966            4.48895
    263       0.00000           0.165278            4.49745
    264       0.00000           0.166285            4.52484
    265       0.00000           0.167883            4.56832
    266       0.00000           0.168296            4.57957
    267       0.00000           0.170670            4.64417
    268       0.00000           0.174644            4.75231
    269       0.00000           0.175795            4.78363
    270       0.00000           0.176404            4.80020
    271       0.00000           0.178248            4.85037
    272       0.00000           0.178472            4.85646
    273       0.00000           0.180870            4.92172
    274       0.00000           0.182381            4.96284
    275       0.00000           0.184003            5.00697
    276       0.00000           0.187704            5.10767
    277       0.00000           0.189112            5.14599
    278       0.00000           0.189928            5.16821
    279       0.00000           0.195379            5.31653
    280       0.00000           0.197287            5.36846
    281       0.00000           0.197698            5.37963
    282       0.00000           0.201057            5.47103
    283       0.00000           0.201554            5.48456
    284       0.00000           0.204738            5.57120
    285       0.00000           0.212223            5.77487
    286       0.00000           0.213000            5.79603
    287       0.00000           0.213943            5.82169
    288       0.00000           0.213985            5.82282
    289       0.00000           0.214547            5.83812
    290       0.00000           0.215935            5.87590
    291       0.00000           0.218038            5.93313
    292       0.00000           0.221379            6.02403
    293       0.00000           0.223193            6.07340
    294       0.00000           0.224729            6.11519
    295       0.00000           0.226241            6.15632
    296       0.00000           0.227102            6.17977
    297       0.00000           0.228602            6.22056
    298       0.00000           0.228983            6.23094
    299       0.00000           0.229213            6.23721
    300       0.00000           0.229732            6.25132
    301       0.00000           0.234032            6.36834
    302       0.00000           0.238909            6.50104
    303       0.00000           0.239549            6.51846
    304       0.00000           0.240150            6.53481
    305       0.00000           0.242863            6.60863
    306       0.00000           0.247581            6.73703
    307       0.00000           0.250488            6.81612
    308       0.00000           0.252139            6.86105
    309       0.00000           0.253595            6.90068
    310       0.00000           0.267730            7.28530
    311       0.00000           0.268959            7.31874
    312       0.00000           0.271162            7.37870

  Highest occupied state (VBM) at     -9.90089403 eV
  | Occupation number:      2.00000000

  Lowest unoccupied state (CBM) at    -7.08036943 eV
  | Occupation number:      0.00000000

  Overall HOMO-LUMO gap:      2.82052459 eV.
  Calculating total energy contributions from superposition of free atom densities.

  Total energy components:
  | Sum of eigenvalues            :        -983.33061552 Ha      -26757.78746967 eV
  | XC energy correction          :        -233.16498988 Ha       -6344.74219168 eV
  | XC potential correction       :         299.51259224 Ha        8150.15231007 eV
  | Free-atom electrostatic energy:        -703.00039702 Ha      -19129.61410700 eV
  | Hartree energy correction     :           0.00000000 Ha           0.00000000 eV
  | Entropy correction            :           0.00000000 Ha           0.00000000 eV
  | ---------------------------
  | Total energy                  :       -1619.98341019 Ha      -44081.99145828 eV
  | Total energy, T -> 0          :       -1619.98341019 Ha      -44081.99145828 eV  <-- do not rely on this value for anything but (periodic) metals
  | Electronic free energy        :       -1619.98341019 Ha      -44081.99145828 eV

  Derived energy quantities:
  | Kinetic energy                :        1604.12011373 Ha       43650.32919882 eV
  | Electrostatic energy          :       -2990.93853403 Ha      -81387.57846542 eV
  | Energy correction for multipole
  | error in Hartree potential    :           0.00000000 Ha           0.00000000 eV
  | Sum of eigenvalues per atom                           :        -371.63593708 eV
  | Total energy (T->0) per atom                          :        -612.24988136 eV  <-- do not rely on this value for anything but (periodic) metals
  | Electronic free energy per atom                       :        -612.24988136 eV
  Initialize hartree_potential_storage
  Max. number of atoms included in rho_multipole:           72

  End scf initialization - timings             :  max(cpu_time)    wall_clock(cpu1)
  | Time for scf. initialization               :        7.876 s           7.939 s
  | Boundary condition initialization          :        0.001 s           0.003 s
  | Integration                                :        5.579 s           5.584 s
  | Solution of K.-S. eqns.                    :        0.460 s           0.476 s
  | Grid partitioning                          :        1.029 s           1.032 s
  | Preloading free-atom quantities on grid    :        0.014 s           0.016 s
  | Free-atom superposition energy             :        0.081 s           0.081 s
  | Total energy evaluation                    :        0.001 s           0.006 s

  Partial memory accounting:
  | Current value for overall tracked memory usage on task 0  :           7.483 MB
  | Peak value for overall tracked memory usage on task 0     :          19.969 MB after allocating zora_vector2
  | Largest tracked array allocation on task 0 so far         :           5.212 MB  when allocating +KS_eigenvector
  Note:  These values currently only include a subset of arrays which are explicitly tracked.
  The "true" memory usage will be greater.
------------------------------------------------------------

------------------------------------------------------------
          Begin self-consistency iteration #    1

  Date     :  20210620, Time     :  173014.041
------------------------------------------------------------
  Evaluating new KS density.
  Integration grid: deviation in total charge (<rho> - N_e) =   0.000000E+00
  Pulay mixing of updated and previous charge densities.

  Evaluating partitioned Hartree potential by multipole expansion.
  | Analytical far-field extrapolation by fixed multipoles:
  | Hartree multipole sum: apparent total charge =  -0.690755E-03
  Summing up the Hartree potential with load balancing.
  Time summed over all CPUs for potential: real work       44.272 s, elapsed       59.549 s
  | RMS charge density error from multipole expansion :   0.163763E-01

  Start compute_balanced_batch_distribution
  Done load balancing, time needed:      0.012 s
  Integrating Hamiltonian matrix: batch-based integration with load balancing
  Time summed over all CPUs for integration: real work      186.672 s, elapsed      199.866 s
  Time get_set_full_local_matrix_scalapack:     0.014116 s
  Start compute_balanced_batch_distribution
  Done load balancing, time needed:      0.012 s

  Updating Kohn-Sham eigenvalues and eigenvectors using ELSI and the ELPA eigensolver.
  Finished transformation to standard eigenproblem
  | Time :     0.051 s
  Starting ELPA eigensolver
  Finished solving standard eigenproblem
  | Time :     0.177 s
  Finished back-transformation of eigenvectors
  | Time :     0.008 s

  Obtaining occupation numbers and chemical potential using ELSI.
  | Chemical potential (Fermi level):    -3.69169588 eV
  Writing Kohn-Sham eigenvalues.

  State    Occupation    Eigenvalue [Ha]    Eigenvalue [eV]
      1       2.00000          -9.973463         -271.39174
      2       2.00000          -9.973463         -271.39174
      3       2.00000          -9.972800         -271.37368
      4       2.00000          -9.972799         -271.37368
      5       2.00000          -9.972398         -271.36275
      6       2.00000          -9.972398         -271.36274
      7       2.00000          -9.970470         -271.31030
      8       2.00000          -9.970470         -271.31030
      9       2.00000          -9.970418         -271.30887
     10       2.00000          -9.970418         -271.30887
     11       2.00000          -9.969313         -271.27880
     12       2.00000          -9.969313         -271.27880
     13       2.00000          -9.949902         -270.75062
     14       2.00000          -9.949902         -270.75062
     15       2.00000          -9.949084         -270.72836
     16       2.00000          -9.949084         -270.72836
     17       2.00000          -9.948537         -270.71346
     18       2.00000          -9.948537         -270.71346
     19       2.00000          -9.948358         -270.70861
     20       2.00000          -9.948354         -270.70849
     21       2.00000          -9.947837         -270.69441
     22       2.00000          -9.947837         -270.69441
     23       2.00000          -9.947820         -270.69396
     24       2.00000          -9.947816         -270.69386
     25       2.00000          -9.947032         -270.67253
     26       2.00000          -9.947032         -270.67252
     27       2.00000          -9.946934         -270.66985
     28       2.00000          -9.946934         -270.66985
     29       2.00000          -9.945978         -270.64384
     30       2.00000          -9.945978         -270.64384
     31       2.00000          -9.945438         -270.62913
     32       2.00000          -9.945438         -270.62913
     33       2.00000          -9.944297         -270.59808
     34       2.00000          -9.944296         -270.59807
     35       2.00000          -9.943923         -270.58791
     36       2.00000          -9.943923         -270.58791
     37       2.00000          -9.943721         -270.58240
     38       2.00000          -9.943721         -270.58240
     39       2.00000          -9.942685         -270.55424
     40       2.00000          -9.942685         -270.55423
     41       2.00000          -9.935111         -270.34812
     42       2.00000          -9.935111         -270.34811
     43       2.00000          -0.866689          -23.58379
     44       2.00000          -0.863614          -23.50013
     45       2.00000          -0.858048          -23.34867
     46       2.00000          -0.850690          -23.14845
     47       2.00000          -0.842210          -22.91771
     48       2.00000          -0.834059          -22.69590
     49       2.00000          -0.830085          -22.58777
     50       2.00000          -0.794999          -21.63302
     51       2.00000          -0.782220          -21.28529
     52       2.00000          -0.765896          -20.84109
     53       2.00000          -0.749421          -20.39279
     54       2.00000          -0.748974          -20.38063
     55       2.00000          -0.746521          -20.31386
     56       2.00000          -0.742988          -20.21772
     57       2.00000          -0.738618          -20.09883
     58       2.00000          -0.734344          -19.98252
     59       2.00000          -0.730875          -19.88812
     60       2.00000          -0.729660          -19.85505
     61       2.00000          -0.728979          -19.83652
     62       2.00000          -0.713051          -19.40311
     63       2.00000          -0.698496          -19.00705
     64       2.00000          -0.647647          -17.62338
     65       2.00000          -0.643754          -17.51744
     66       2.00000          -0.636659          -17.32438
     67       2.00000          -0.631580          -17.18618
     68       2.00000          -0.626163          -17.03877
     69       2.00000          -0.615210          -16.74071
     70       2.00000          -0.614229          -16.71402
     71       2.00000          -0.601390          -16.36466
     72       2.00000          -0.600911          -16.35163
     73       2.00000          -0.590558          -16.06989
     74       2.00000          -0.588423          -16.01180
     75       2.00000          -0.582862          -15.86047
     76       2.00000          -0.579925          -15.78057
     77       2.00000          -0.579151          -15.75950
     78       2.00000          -0.560797          -15.26007
[...]
    142       0.00000          -0.093456           -2.54306
    143       0.00000          -0.077677           -2.11371
    144       0.00000          -0.063408           -1.72542
    145       0.00000          -0.059385           -1.61594
    146       0.00000          -0.057793           -1.57263
    147       0.00000          -0.053258           -1.44923
    148       0.00000          -0.045652           -1.24226
    149       0.00000          -0.036346           -0.98901
    150       0.00000          -0.036068           -0.98147
    151       0.00000          -0.027434           -0.74651
    152       0.00000          -0.022009           -0.59888
    153       0.00000          -0.013957           -0.37979
    154       0.00000          -0.011349           -0.30882
    155       0.00000          -0.009246           -0.25160
    156       0.00000          -0.005881           -0.16003
    157       0.00000          -0.000835           -0.02271
    158       0.00000           0.000433            0.01178
    159       0.00000           0.004356            0.11852
    160       0.00000           0.006105            0.16611
    161       0.00000           0.008907            0.24238
    162       0.00000           0.010265            0.27931
    163       0.00000           0.015079            0.41033
    164       0.00000           0.017961            0.48873
    165       0.00000           0.025576            0.69595
    166       0.00000           0.026768            0.72840
    167       0.00000           0.028832            0.78455
    168       0.00000           0.036546            0.99447
    169       0.00000           0.036730            0.99946
    170       0.00000           0.047290            1.28684
    171       0.00000           0.051321            1.39652
    172       0.00000           0.057511            1.56496
    173       0.00000           0.060648            1.65031
    174       0.00000           0.068142            1.85424
    175       0.00000           0.076071            2.06999
    176       0.00000           0.077140            2.09909
    177       0.00000           0.077147            2.09927
    178       0.00000           0.080265            2.18411
    179       0.00000           0.082857            2.25466
    180       0.00000           0.084405            2.29679
    181       0.00000           0.086230            2.34644
    182       0.00000           0.092719            2.52302
    183       0.00000           0.094173            2.56258
    184       0.00000           0.098841            2.68961
    185       0.00000           0.101654            2.76616
    186       0.00000           0.102072            2.77752
    187       0.00000           0.106504            2.89813
    188       0.00000           0.107591            2.92770
    189       0.00000           0.109285            2.97380
    190       0.00000           0.116389            3.16710
    191       0.00000           0.118898            3.23538
    192       0.00000           0.121587            3.30856
    193       0.00000           0.123425            3.35857
    194       0.00000           0.125784            3.42275
    195       0.00000           0.126745            3.44890
    196       0.00000           0.131295            3.57272
    197       0.00000           0.135501            3.68716
    198       0.00000           0.136743            3.72096
    199       0.00000           0.137118            3.73118
    200       0.00000           0.138303            3.76342
    201       0.00000           0.139359            3.79214
    202       0.00000           0.141618            3.85362
    203       0.00000           0.143098            3.89389
    204       0.00000           0.143391            3.90186
    205       0.00000           0.149682            4.07305
    206       0.00000           0.150759            4.10237
    207       0.00000           0.152467            4.14884
    208       0.00000           0.154236            4.19698
    209       0.00000           0.157375            4.28238
    210       0.00000           0.158795            4.32102
    211       0.00000           0.159564            4.34197
    212       0.00000           0.161509            4.39489
    213       0.00000           0.162150            4.41234
    214       0.00000           0.165309            4.49830
    215       0.00000           0.166123            4.52044
    216       0.00000           0.170290            4.63383
    217       0.00000           0.172835            4.70308
    218       0.00000           0.174476            4.74773
    219       0.00000           0.174973            4.76126
    220       0.00000           0.175208            4.76765
    221       0.00000           0.178408            4.85472
    222       0.00000           0.179891            4.89508
    223       0.00000           0.182265            4.95969
    224       0.00000           0.182775            4.97357
    225       0.00000           0.190001            5.17020
    226       0.00000           0.190931            5.19548
    227       0.00000           0.192439            5.23653
    228       0.00000           0.193480            5.26485
    229       0.00000           0.194366            5.28896
    230       0.00000           0.195076            5.30829
    231       0.00000           0.195421            5.31767
    232       0.00000           0.196989            5.36036
    233       0.00000           0.199447            5.42723
    234       0.00000           0.202533            5.51119
    235       0.00000           0.206088            5.60793
    236       0.00000           0.208269            5.66728
    237       0.00000           0.210113            5.71747
    238       0.00000           0.211074            5.74363
    239       0.00000           0.217007            5.90506
    240       0.00000           0.217498            5.91841
    241       0.00000           0.217613            5.92155
    242       0.00000           0.222176            6.04570
    243       0.00000           0.224146            6.09933
    244       0.00000           0.225349            6.13204
    245       0.00000           0.227575            6.19264
    246       0.00000           0.232264            6.32024
    247       0.00000           0.238505            6.49005
    248       0.00000           0.238869            6.49995
    249       0.00000           0.241178            6.56280
    250       0.00000           0.241605            6.57441
    251       0.00000           0.241758            6.57856
    252       0.00000           0.242604            6.60159
    253       0.00000           0.244073            6.64157
    254       0.00000           0.248613            6.76511
    255       0.00000           0.250368            6.81286
    256       0.00000           0.250558            6.81802
    257       0.00000           0.255313            6.94743
    258       0.00000           0.259979            7.07440
    259       0.00000           0.260116            7.07811
    260       0.00000           0.260668            7.09312
    261       0.00000           0.262698            7.14838
    262       0.00000           0.263800            7.17836
    263       0.00000           0.264075            7.18584
    264       0.00000           0.265110            7.21401
    265       0.00000           0.272150            7.40557
    266       0.00000           0.272439            7.41345
    267       0.00000           0.276104            7.51316
    268       0.00000           0.276154            7.51453
    269       0.00000           0.276687            7.52904
    270       0.00000           0.278637            7.58209
    271       0.00000           0.280730            7.63906
    272       0.00000           0.281734            7.66638
    273       0.00000           0.284695            7.74695
    274       0.00000           0.285628            7.77233
    275       0.00000           0.288656            7.85473
    276       0.00000           0.293194            7.97822
    277       0.00000           0.293441            7.98494
    278       0.00000           0.294915            8.02505
    279       0.00000           0.296685            8.07320
    280       0.00000           0.300696            8.18235
    281       0.00000           0.301308            8.19901
    282       0.00000           0.305446            8.31160
    283       0.00000           0.305681            8.31800
    284       0.00000           0.307859            8.37726
    285       0.00000           0.313601            8.53351
    286       0.00000           0.314110            8.54737
    287       0.00000           0.314906            8.56902
    288       0.00000           0.316352            8.60838
    289       0.00000           0.322840            8.78493
    290       0.00000           0.323951            8.81516
    291       0.00000           0.324357            8.82622
    292       0.00000           0.324380            8.82684
    293       0.00000           0.325075            8.84573
    294       0.00000           0.328000            8.92533
    295       0.00000           0.328958            8.95141
    296       0.00000           0.335179            9.12070
    297       0.00000           0.335575            9.13146
    298       0.00000           0.338622            9.21437
    299       0.00000           0.340708            9.27114
    300       0.00000           0.342860            9.32969
    301       0.00000           0.348547            9.48444
    302       0.00000           0.355662            9.67806
    303       0.00000           0.356174            9.69198
    304       0.00000           0.361302            9.83152
    305       0.00000           0.366748            9.97973
    306       0.00000           0.367001            9.98659
    307       0.00000           0.370570           10.08373
    308       0.00000           0.376363           10.24137
    309       0.00000           0.377620           10.27556
    310       0.00000           0.380738           10.36039
    311       0.00000           0.381347           10.37697
    312       0.00000           0.383976           10.44852

  Highest occupied state (VBM) at     -5.12036849 eV
  | Occupation number:      2.00000000

  Lowest unoccupied state (CBM) at    -2.54305825 eV
  | Occupation number:      0.00000000

  Overall HOMO-LUMO gap:      2.57731024 eV.

  Total energy components:
  | Sum of eigenvalues            :        -921.23529769 Ha      -25068.08790042 eV
  | XC energy correction          :        -237.86510161 Ha       -6472.63873904 eV
  | XC potential correction       :         305.58083203 Ha        8315.27751631 eV
  | Free-atom electrostatic energy:        -703.00039702 Ha      -19129.61410700 eV
  | Hartree energy correction     :         -61.30245344 Ha       -1668.12463124 eV
  | Entropy correction            :           0.00000000 Ha           0.00000000 eV
  | ---------------------------
  | Total energy                  :       -1617.82241772 Ha      -44023.18786139 eV
  | Total energy, T -> 0          :       -1617.82241772 Ha      -44023.18786139 eV  <-- do not rely on this value for anything but (periodic) metals
  | Electronic free energy        :       -1617.82241772 Ha      -44023.18786139 eV

  Derived energy quantities:
  | Kinetic energy                :        1615.03904219 Ha       43947.44835962 eV
  | Electrostatic energy          :       -2994.99635831 Ha      -81497.99748198 eV
  | Energy correction for multipole
  | error in Hartree potential    :          -0.19823725 Ha          -5.39430995 eV
  | Sum of eigenvalues per atom                           :        -348.16788751 eV
  | Total energy (T->0) per atom                          :        -611.43316474 eV  <-- do not rely on this value for anything but (periodic) metals
  | Electronic free energy per atom                       :        -611.43316474 eV
  End evaluation of scaled ZORA corrections.
  | Time for scaled ZORA corrections           :        4.973 s           4.974 s
------------------------------------------------------------

  Energy and forces in a compact form:
  | Total energy uncorrected      :         -0.440231878613950E+05 eV
  | Total energy corrected        :         -0.440231878613950E+05 eV  <-- do not rely on this value for anything but (periodic) metals
  | Electronic free energy        :         -0.440231878613950E+05 eV

  ------------------------------------ 
  Start decomposition of the XC Energy 
  ------------------------------------ 
  X and C from original XC functional choice 
  Hartree-Fock Energy :          0.000000000 Ha              0.000000000 eV
  X Energy            :       -228.443518882 Ha          -6216.264428837 eV
  C Energy            :         -9.421582728 Ha           -256.374310202 eV
  Total XC Energy     :       -237.865101610 Ha          -6472.638739038 eV
  ------------------------------------ 
  LDA X and C from self-consistent density 
  X Energy LDA        :       -206.906480078 Ha          -5630.211784947 eV
  C Energy LDA        :        -18.153932381 Ha           -493.993634217 eV
  ------------------------------------ 
  End decomposition of the XC Energy 
  ------------------------------------ 

------------------------------------------------------------

------------------------------------------------------------------------------
  Final output of selected total energy values:

  The following output summarizes some interesting total energy values
  at the end of a run (AFTER all relaxation, molecular dynamics, etc.).

  | Total energy of the DFT / Hartree-Fock s.c.f. calculation      :         -44023.187861395 eV
  | Final zero-broadening corrected energy (caution - metals only) :         -44023.187861395 eV
  | For reference only, the value of 1 Hartree used in FHI-aims is :             27.211384500 eV

  Before relying on these values, please be sure to understand exactly which
  total energy value is referred to by a given number. Different objects may
  all carry the same name 'total energy'. Definitions:

  Total energy of the DFT / Hartree-Fock s.c.f. calculation:
  | Note that this energy does not include ANY quantities calculated after the
  | s.c.f. cycle, in particular not ANY RPA, MP2, etc. many-body perturbation terms.
  | Scalar relativistic effects have been included in the 'scaled ZORA' approximation.

  Final zero-broadening corrected energy:
  | For metallic systems only, a broadening of the occupation numbers at the Fermi
  | level can be extrapolated back to zero broadening by an electron-gas inspired
  | formula. For all systems that are not real metals, this value can be
  | meaningless and should be avoided.

------------------------------------------------------------------------------
  Methods described in the following list of references were used in this FHI-aims run.
  If you publish the results, please make sure to cite these reference if they apply.
  FHI-aims is an academic code, and for our developers (often, Ph.D. students
  and postdocs), scientific credit in the community is essential.
  Thank you for helping us!

  For any use of FHI-aims, please cite:

    Volker Blum, Ralf Gehrke, Felix Hanke, Paula Havu, Ville Havu,
    Xinguo Ren, Karsten Reuter, and Matthias Scheffler
    'Ab initio molecular simulations with numeric atom-centered orbitals'
    Computer Physics Communications 180, 2175-2196 (2009)
    http://dx.doi.org/10.1016/j.cpc.2009.06.022


  The scalable eigensolver library ELPA was used in your run.
  ELPA is essential especially for large systems on hundreds or thousands of CPUs.
  For ELPA, please cite:

    Andreas Marek, Volker Blum, Rainer Johanni, Ville Havu, Bruno Lang,
    Thomas Auckenthaler, Alexander Heinecke, Hans-Joachim Bungartz, and Hermann Lederer,
    'The ELPA Library - Scalable Parallel Eigenvalue Solutions
    for Electronic Structure Theory and Computational Science'
    The Journal of Physics: Condensed Matter 26, 213201 (2014).
    http://dx.doi.org/10.1088/0953-8984/26/21/213201


  The ELSI infrastructure was used in your run to solve the Kohn-Sham electronic structure.
  Please check out http://elsi-interchange.org to learn more.
  If scalability is important for your project, please acknowledge ELSI by citing:

    V. W-z. Yu, F. Corsetti, A. Garcia, W. P. Huhn, M. Jacquelin, W. Jia,
    B. Lange, L. Lin, J. Lu, W. Mi, A. Seifitokaldani, A. Vazquez-Mayagoitia,
    C. Yang, H. Yang, and V. Blum
    'ELSI: A unified software interface for Kohn-Sham electronic structure solvers'
    Computer Physics Communications 222, 267-285 (2018).
    http://dx.doi.org/10.1016/j.cpc.2017.09.007


  For the real-space grid partitioning and parallelization used in this calculation, please cite:

    Ville Havu, Volker Blum, Paula Havu, and Matthias Scheffler,
    'Efficient O(N) integration for all-electron electronic structure calculation'
    'using numerically tabulated basis functions'
    Journal of Computational Physics 228, 8367-8379 (2009).
    http://dx.doi.org/10.1016/j.jcp.2009.08.008

  Of course, there are many other important community references, e.g., those cited in the
  above references. Our list is limited to references that describe implementations in the
  FHI-aims code. The reason is purely practical (length of this list) - please credit others as well.

------------------------------------------------------------
          Leaving FHI-aims.
          Date     :  20210620, Time     :  173201.938

          Computational steps:
          | Number of self-consistency cycles          :           16
          | Number of SCF (re)initializations          :            1

          Detailed time accounting                     :  max(cpu_time)    wall_clock(cpu1)
          | Total time                                 :      116.010 s         116.214 s
          | Preparation time                           :        0.193 s           0.176 s
          | Boundary condition initalization           :        0.001 s           0.003 s
          | Grid partitioning                          :        1.029 s           1.032 s
          | Preloading free-atom quantities on grid    :        0.014 s           0.016 s
          | Free-atom superposition energy             :        0.081 s           0.081 s
          | Total time for integrations                :       61.014 s          61.020 s
          | Total time for solution of K.-S. equations :        5.053 s           5.077 s
          | Total time for density update              :       28.055 s          28.010 s
          | Total time for mixing                      :        0.193 s           0.194 s
          | Total time for Hartree multipole update    :        0.227 s           0.234 s
          | Total time for Hartree multipole sum       :       14.222 s          14.225 s
          | Total time for total energy evaluation     :        0.012 s           0.037 s
          | Total time for scaled ZORA corrections     :        4.973 s           4.974 s

          Partial memory accounting:
          | Residual value for overall tracked memory usage across tasks :     0.000000 MB (should be 0.000000 MB)
          | Peak values for overall tracked memory usage (after allocating zora_vector2):
          |   Minimum:       20.223 MB (on task  1)
          |   Maximum:       25.733 MB (on task 31)
          |   Average:       23.317 MB
          | Largest tracked array allocation (+KS_eigenvector):
          |   Minimum:        5.212 MB (on task  1)
          |   Maximum:        5.212 MB (on task  1)
          |   Average:        5.212 MB
          Note:  These values currently only include a subset of arrays which are explicitly tracked.
          The "true" memory usage will be greater.

          Have a nice day.
------------------------------------------------------------
