  MPI-parallelism will be employed.
------------------------------------------------------------
          Invoking FHI-aims ...
          Version 180607
          Git rev. (modified): 6724847 Fix JSON memory corruption in scf_solver
          Compiled on 2018/06/27 at 16:00:31 on host coe.psc.edu.

          When using FHI-aims, please cite the following reference:

          Volker Blum, Ralf Gehrke, Felix Hanke, Paula Havu,
          Ville Havu, Xinguo Ren, Karsten Reuter, and Matthias Scheffler,
          'Ab Initio Molecular Simulations with Numeric Atom-Centered Orbitals',
          Computer Physics Communications 180, 2175-2196 (2009)

          For any questions about FHI-aims, please visit the aimsclub website
          with its forums and wiki. Contributions to both the forums and the
          wiki are warmly encouraged - they are for you, and everyone is welcome there.

------------------------------------------------------------



  Date     :  20210620, Time     :  172429.894
  Time zero on CPU 1             :   0.211018000000000E+00  s.
  Internal wall clock time zero  :           393441869.894  s.

  FHI-aims created a unique identifier for this run for later identification
  aims_uuid : 4D0BC67E-98A7-4D71-A862-3B0E8D1780C2

  Using       56 parallel tasks.
  Task        0 on host d021 reporting.
  Task        1 on host d021 reporting.
  Task        2 on host d021 reporting.
  Task        3 on host d021 reporting.
  Task        4 on host d021 reporting.
  Task        5 on host d021 reporting.
  Task        6 on host d021 reporting.
  Task        7 on host d021 reporting.
  Task        8 on host d021 reporting.
  Task        9 on host d021 reporting.
  Task       10 on host d021 reporting.
  Task       11 on host d021 reporting.
  Task       12 on host d021 reporting.
  Task       13 on host d021 reporting.
  Task       14 on host d021 reporting.
  Task       15 on host d021 reporting.
  Task       16 on host d021 reporting.
  Task       17 on host d021 reporting.
  Task       18 on host d021 reporting.
  Task       19 on host d021 reporting.
  Task       20 on host d021 reporting.
  Task       21 on host d021 reporting.
  Task       22 on host d021 reporting.
  Task       23 on host d021 reporting.
  Task       24 on host d021 reporting.
  Task       25 on host d021 reporting.
  Task       26 on host d021 reporting.
  Task       27 on host d021 reporting.
  Task       28 on host d021 reporting.
  Task       29 on host d021 reporting.
  Task       30 on host d021 reporting.
  Task       31 on host d021 reporting.
  Task       32 on host d021 reporting.
  Task       33 on host d021 reporting.
  Task       34 on host d021 reporting.
  Task       35 on host d021 reporting.
  Task       36 on host d021 reporting.
  Task       37 on host d021 reporting.
  Task       38 on host d021 reporting.
  Task       39 on host d021 reporting.
  Task       40 on host d021 reporting.
  Task       41 on host d021 reporting.
  Task       42 on host d021 reporting.
  Task       43 on host d021 reporting.
  Task       44 on host d021 reporting.
  Task       45 on host d021 reporting.
  Task       46 on host d021 reporting.
  Task       47 on host d021 reporting.
  Task       48 on host d021 reporting.
  Task       49 on host d021 reporting.
  Task       50 on host d021 reporting.
  Task       51 on host d021 reporting.
  Task       52 on host d021 reporting.
  Task       53 on host d021 reporting.
  Task       54 on host d021 reporting.
  Task       55 on host d021 reporting.

  Performing system and environment tests:
  *** Environment variable OMP_NUM_THREADS is not set
  *** For performance reasons you might want to set it to 1
  | Stacksize not measured: no C compiler
  | Checking for scalapack...
  | Testing pdtran()...
  | All pdtran() tests passed.

  Obtaining array dimensions for all initial allocations:
  
  -----------------------------------------------------------------------
  Parsing control.in (first pass over file, find array dimensions only).
  The contents of control.in will be repeated verbatim below
  unless switched off by setting 'verbatim_writeout .false.' .
  in the first line of control.in .
  -----------------------------------------------------------------------
  
  #===============================================================================
  # FHI-aims file: ./Runs/es/control.in
  # Created using the Atomic Simulation Environment (ASE)
  # Mon Jan 13 16:04:38 2020
  #===============================================================================
  xc                                 pbe
  relativistic                       zora scalar 1e-12
  occupation_type                    gaussian 0.0001
  load_balancing                     .true.
  KS_method                          scalapack_fast
  mixer                              pulay
  n_max_pulay                        5
  charge_mix_param                   0.4
  sc_accuracy_etot                   1e-6
  sc_accuracy_eev                    1e-4
  sc_accuracy_rho                    1e-6
  sc_iter_limit                      100
  prodbas_threshold                  1e-4
  basis_threshold                    1e-5
  override_illconditioning           .true.
  use_logsbt                         .true.
  spin                               none
  charge                             0
  #===============================================================================
  
  ################################################################################
  #
  #  FHI-aims code project
  # Volker Blum, Fritz Haber Institute Berlin, 2009
  #
  #  Suggested "tight" defaults for H atom (to be pasted into control.in file)
  #
  ################################################################################
    species        H
  #     global species definitions
      nucleus             1
      mass                1.00794
  #
      l_hartree           6
  #
      cut_pot             4.0  2.0  1.0
      basis_dep_cutoff    1e-4
  #
      radial_base         24 7.0
      radial_multiplier   2
      angular_grids       specified
        division   0.1930   50
        division   0.3175  110
        division   0.4293  194
        division   0.5066  302
        division   0.5626  434
  #      division   0.5922  590
  #      division   0.6227  974
  #      division   0.6868 1202
  #      outer_grid  770
        outer_grid  434
  ################################################################################
  #
  #  Definition of "minimal" basis
  #
  ################################################################################
  #     valence basis states
      valence      1  s   1.
  #     ion occupancy
      ion_occ      1  s   0.5
  ################################################################################
  #
  #  Suggested additional basis functions. For production calculations,
  #  uncomment them one after another (the most important basis functions are
  #  listed first).
  #
  #  Basis constructed for dimers: 0.5 A, 0.7 A, 1.0 A, 1.5 A, 2.5 A
  #
  ################################################################################
  #  "First tier" - improvements: -1014.90 meV to -62.69 meV
       hydro 2 s 2.1
       hydro 2 p 3.5
  #  "Second tier" - improvements: -12.89 meV to -1.83 meV
       hydro 1 s 0.85
       hydro 2 p 3.7
       hydro 2 s 1.2
       hydro 3 d 7
  #  "Third tier" - improvements: -0.25 meV to -0.12 meV
  #     hydro 4 f 11.2
  #     hydro 3 p 4.8
  #     hydro 4 d 9
  #     hydro 3 s 3.2
  ################################################################################
  #
  # For methods that use the localized form of the "resolution of identity" for
  # the two-electron Coulomb operator (RI_method LVL), particularly Hartree-Fock and
  # hybrid density functional calculations, the highest accuracy can be obtained by
  # uncommenting the line beginning with "for_aux"  below, thus adding an extra g radial
  # function to the construction of the product basis set for the expansion.
  # See Ref. New J. Phys. 17, 093020 (2015) for more information, particularly Figs. 1 and 6.
  #
  ################################################################################
  #
  # for_aux hydro 5 g 6.0
  ################################################################################
  #
  #  FHI-aims code project
  # Volker Blum, Fritz Haber Institute Berlin, 2009
  #
  #  Suggested "tight" defaults for C atom (to be pasted into control.in file)
  #
  ################################################################################
    species        C
  #     global species definitions
      nucleus             6
      mass                12.0107
  #
      l_hartree           6
  #
      cut_pot             4.0  2.0  1.0
      basis_dep_cutoff    1e-4
  #
      radial_base         34 7.0
      radial_multiplier   2
      angular_grids specified
        division   0.2187   50
        division   0.4416  110
        division   0.6335  194
        division   0.7727  302
        division   0.8772  434
  #      division   0.9334  590
  #      division   0.9924  770
  #      division   1.0230  974
  #      division   1.5020 1202
  #     outer_grid  974
        outer_grid  434
  ################################################################################
  #
  #  Definition of "minimal" basis
  #
  ################################################################################
  #     valence basis states
      valence      2  s   2.
      valence      2  p   2.
  #     ion occupancy
      ion_occ      2  s   1.
      ion_occ      2  p   1.
  ################################################################################
  #
  #  Suggested additional basis functions. For production calculations,
  #  uncomment them one after another (the most important basis functions are
  #  listed first).
  #
  #  Constructed for dimers: 1.0 A, 1.25 A, 1.5 A, 2.0 A, 3.0 A
  #
  ################################################################################
  #  "First tier" - improvements: -1214.57 meV to -155.61 meV
       hydro 2 p 1.7
       hydro 3 d 6
       hydro 2 s 4.9
  #  "Second tier" - improvements: -67.75 meV to -5.23 meV
       hydro 4 f 9.8
       hydro 3 p 5.2
       hydro 3 s 4.3
       hydro 5 g 14.4
       hydro 3 d 6.2
  #  "Third tier" - improvements: -2.43 meV to -0.60 meV
  #     hydro 2 p 5.6
  #     hydro 2 s 1.4
  #     hydro 3 d 4.9
  #     hydro 4 f 11.2
  #  "Fourth tier" - improvements: -0.39 meV to -0.18 meV
  #     hydro 2 p 2.1
  #     hydro 5 g 16.4
  #     hydro 4 d 13.2
  #     hydro 3 s 13.6
  #     hydro 4 f 17.6
  #  Further basis functions - improvements: -0.08 meV and below
  #     hydro 3 s 2
  #     hydro 3 p 6
  #     hydro 4 d 20
  ################################################################################
  #
  # For methods that use the localized form of the "resolution of identity" for
  # the two-electron Coulomb operator (RI_method LVL), particularly Hartree-Fock and
  # hybrid density functional calculations, the highest accuracy can be obtained by
  # uncommenting the line beginning with "for_aux"  below, thus adding an extra g radial
  # function to the construction of the product basis set for the expansion.
  # See Ref. New J. Phys. 17, 093020 (2015) for more information, particularly Figs. 1 and 6.
  #
  ################################################################################
  #
  # for_aux hydro 5 g 6.0
  
  -----------------------------------------------------------------------
  Completed first pass over input file control.in .
  -----------------------------------------------------------------------
  
  
  -----------------------------------------------------------------------
  Parsing geometry.in (first pass over file, find array dimensions only).
  The contents of geometry.in will be repeated verbatim below
  unless switched off by setting 'verbatim_writeout .false.' .
  in the first line of geometry.in .
  -----------------------------------------------------------------------
  
  #=======================================================
  # FHI-aims file: geometry.in
  # Created using the Atomic Simulation Environment (ASE)
  # Sun Jun 20 15:47:01 2021
  #=======================================================
  atom 8.9571380000000005 18.7250960000000006 29.6826580000000000 H
  atom 9.8049759999999999 19.0134229999999995 30.3202789999999993 C
  atom 9.4389400000000006 19.8561249999999987 30.9206019999999988 H
  atom 10.1664569999999994 17.8456790000000005 31.2418230000000001 C
  atom 10.9855000000000000 19.4745959999999982 29.4434930000000001 C
  atom 9.2799859999999992 17.5939210000000017 31.8420309999999986 H
  atom 10.6418440000000007 16.6255710000000008 30.4889800000000015 C
  atom 10.9364150000000002 18.1773810000000005 31.9553019999999997 H
  atom 10.7122209999999995 20.6665939999999999 28.5586729999999989 C
  atom 11.3407859999999996 18.6418430000000015 28.8275620000000004 H
  atom 11.8229690000000005 19.7306300000000014 30.1083120000000015 H
  atom 9.9133519999999997 16.3155919999999988 29.7259230000000017 H
  atom 10.7814390000000007 15.7641600000000004 31.1568980000000018 H
  atom 11.6046469999999999 16.7975339999999989 29.9882710000000010 H
  atom 10.5993770000000005 20.5822220000000016 27.2021790000000010 C
  atom 10.6830900000000000 21.9766289999999991 29.2093769999999999 C
  atom 10.5563970000000005 19.3004989999999985 26.4619600000000013 C
  atom 10.6631499999999999 21.7904200000000010 26.3678549999999987 C
  atom 10.3070880000000002 23.1207279999999997 28.4450579999999995 C
  atom 10.9057399999999998 22.1460380000000008 30.5853810000000017 C
  atom 9.9493980000000004 18.1590249999999997 26.9370779999999996 C
  atom 11.1859880000000000 19.2513959999999997 25.1835050000000003 C
  atom 10.2017500000000005 23.0384230000000017 27.0288879999999985 C
  atom 11.2626589999999993 21.7453749999999992 25.1375999999999991 C
  atom 10.0343870000000006 24.3550000000000004 29.1015000000000015 C
  atom 10.7170050000000003 23.3992100000000001 31.1844409999999996 C
  atom 11.2120960000000007 21.3096649999999990 31.2064759999999985 H
  atom 9.3517209999999995 18.2021970000000017 27.8430129999999991 H
  atom 10.0465529999999994 16.9465000000000003 26.2680119999999988 C
  atom 11.3493080000000006 17.9998749999999994 24.5224720000000005 C
  atom 11.6344619999999992 20.4615289999999987 24.5569009999999999 C
  atom 9.6732180000000003 24.1086640000000010 26.3357209999999995 C
  atom 11.6884750000000004 22.9929619999999986 24.3652480000000011 C
  atom 9.5494869999999992 25.4477669999999989 28.3257049999999992 C
  atom 10.2797669999999997 24.4643049999999995 30.4855370000000008 C
  atom 10.9278589999999998 23.4917370000000005 32.2498969999999971 H
  atom 9.5402410000000000 16.0766810000000007 26.6876980000000010 H
  atom 10.7742970000000007 16.8315689999999982 25.1146470000000015 C
  atom 12.0619540000000001 17.9506329999999998 23.3013979999999989 C
  atom 12.3186079999999993 20.3380749999999999 23.3404179999999997 C
  atom 9.4786110000000008 24.0302800000000012 25.2696919999999992 H
  atom 9.3522040000000004 25.2925140000000006 26.9921639999999989 C
  atom 10.8776489999999999 23.3240489999999987 23.1108919999999998 C
  atom 12.7375080000000001 22.8464430000000007 24.0664060000000006 H
  atom 11.6887519999999991 23.8476420000000005 25.0509540000000008 H
  atom 9.3483520000000002 26.3984069999999988 28.8161999999999985 H
  atom 10.1203330000000005 25.4290529999999997 30.9688020000000002 H
  atom 10.8981220000000008 15.8735809999999997 24.6101509999999983 H
  atom 12.2222629999999999 16.9857119999999995 22.8200840000000014 H
  atom 12.5296009999999995 19.0928480000000000 22.7528329999999990 C
  atom 12.6731520000000000 21.2243350000000000 22.8216910000000013 H
  atom 8.9586229999999993 26.1230210000000014 26.4091699999999996 H
  atom 10.8270040000000005 22.4475639999999999 22.4500889999999984 H
  atom 9.8328229999999994 23.5375179999999986 23.3812730000000002 H
  atom 11.4517790000000002 24.5113410000000016 22.3293590000000002 C
  atom 13.0763269999999991 19.0522400000000012 21.8106319999999982 H
  atom 10.8746510000000001 24.6399870000000014 21.4055199999999992 H
  atom 11.4485899999999994 25.8170169999999999 23.1143350000000005 C
  atom 12.4797759999999993 24.2751100000000015 22.0123849999999983 H
  atom 10.4494919999999993 26.0337589999999999 23.5200209999999998 H
  atom 12.1506989999999995 25.7969539999999995 23.9580699999999993 H
  atom 11.7343799999999998 26.6635160000000013 22.4760260000000009 H
  
  -----------------------------------------------------------------------
  Completed first pass over input file geometry.in .
  -----------------------------------------------------------------------
  

  Basic array size parameters:
  | Number of species                 :        2
  | Number of atoms                   :       62
  | Max. basis fn. angular momentum   :        4
  | Max. atomic/ionic basis occupied n:        2
  | Max. number of basis fn. types    :        2
  | Max. radial fns per species/type  :        8
  | Max. logarithmic grid size        :     1277
  | Max. radial integration grid size :       69
  | Max. angular integration grid size:      434
  | Max. angular grid division number :        8
  | Radial grid for Hartree potential :     1277
  | Number of spin channels           :        1

------------------------------------------------------------
          Reading file control.in.
------------------------------------------------------------
  XC: Using PBE gradient-corrected functionals.
  Scalar relativistic treatment of kinetic energy: ZORA.
  Threshold value for ZORA:   0.100000E-11
  Occupation type: Gaussian broadening, width =   0.100000E-03 eV.
  Since 'load_balancing .true.' is present in control.in, automatically turning on 'use_local_index .true.'.
  Using load balancing for integrations.
  Kohn-Sham electronic structure solved by the ELSI library.
  Using pulay charge density mixing.
  Pulay mixing - number of memorized iterations:    5
  Charge density mixing - mixing parameter:     0.4000
  Convergence accuracy of total energy:  0.1000E-05
  Convergence accuracy of sum of eigenvalues:  0.1000E-03
  Convergence accuracy of self-consistent charge density:  0.1000E-05
  Maximum number of s.-c. iterations  :   100
  * Ignoring prodbas_threshold
  Threshold for basis singularities:  0.1000E-04
  override_illconditioning: Explicitly overriding any built-in checks for an ill-conditioned overlap matrix.
  *** WARNING: If you use this flag, you should really know what you are doing.
  *** DO NOT keep this flag set by default in all your control.in files.
  Using 1D integrations for auxiliary 2-center integrals.
  Spin treatment: No spin polarisation.
  Charge =   0.000000E+00: Neutral system requested explicitly.
 
  Reading configuration options for species H                   .
  | Found nuclear charge :   1.0000
  | Found atomic mass :    1.00794000000000      amu
  | Found l_max for Hartree potential  :   6
  | Found cutoff potl. onset [A], width [A], scale factor :    4.00000    2.00000    1.00000
  | Threshold for basis-dependent cutoff potential is   0.100000E-03
  | Found data for basic radial integration grid :    24 points, outermost radius =    7.000 A
  | Found multiplier for basic radial grid :   2
  | Found angular grid specification: user-specified.
  | Specified grid contains     6 separate shells.
  | Check grid settings after all constraints further below.
  | Found free-atom valence shell :  1 s   1.000
  | No ionic wave fns used. Skipping ion_occ.
  | Found hydrogenic basis function :  2 s   2.100
  | Found hydrogenic basis function :  2 p   3.500
  | Found hydrogenic basis function :  1 s   0.850
  | Found hydrogenic basis function :  2 p   3.700
  | Found hydrogenic basis function :  2 s   1.200
  | Found hydrogenic basis function :  3 d   7.000
  Species H                   : Missing cutoff potential type.
  Defaulting to exp(1/x)/(1-x)^2 type cutoff potential.
  Species H : No 'logarithmic' tag. Using default grid for free atom:
  | Default logarithmic grid data [bohr] : 0.1000E-03 0.1000E+03 0.1012E+01
  Species H : On-site basis accuracy parameter (for Gram-Schmidt orthonormalisation) not specified.
  Using default value basis_acc =  0.1000000E-03.
  Species H                   : Using default innermost maximum threshold i_radial=  2 for radial functions.
  Species H                   : Default cutoff onset for free atom density etc. : 0.40000000E+01 AA.
  Species H                   : Basic radial grid will be enhanced according to radial_multiplier =   2, to contain    49 grid points.
 
  Reading configuration options for species C                   .
  | Found nuclear charge :   6.0000
  | Found atomic mass :    12.0107000000000      amu
  | Found l_max for Hartree potential  :   6
  | Found cutoff potl. onset [A], width [A], scale factor :    4.00000    2.00000    1.00000
  | Threshold for basis-dependent cutoff potential is   0.100000E-03
  | Found data for basic radial integration grid :    34 points, outermost radius =    7.000 A
  | Found multiplier for basic radial grid :   2
  | Found angular grid specification: user-specified.
  | Specified grid contains     6 separate shells.
  | Check grid settings after all constraints further below.
  | Found free-atom valence shell :  2 s   2.000
  | Found free-atom valence shell :  2 p   2.000
  | No ionic wave fns used. Skipping ion_occ.
  | No ionic wave fns used. Skipping ion_occ.
  | Found hydrogenic basis function :  2 p   1.700
  | Found hydrogenic basis function :  3 d   6.000
  | Found hydrogenic basis function :  2 s   4.900
  | Found hydrogenic basis function :  4 f   9.800
  | Found hydrogenic basis function :  3 p   5.200
  | Found hydrogenic basis function :  3 s   4.300
  | Found hydrogenic basis function :  5 g  14.400
  | Found hydrogenic basis function :  3 d   6.200
  Species C                   : Missing cutoff potential type.
  Defaulting to exp(1/x)/(1-x)^2 type cutoff potential.
  Species C : No 'logarithmic' tag. Using default grid for free atom:
  | Default logarithmic grid data [bohr] : 0.1000E-03 0.1000E+03 0.1012E+01
  Species C : On-site basis accuracy parameter (for Gram-Schmidt orthonormalisation) not specified.
  Using default value basis_acc =  0.1000000E-03.
  Species C                   : Using default innermost maximum threshold i_radial=  2 for radial functions.
  Species C                   : Default cutoff onset for free atom density etc. : 0.40000000E+01 AA.
  Species C                   : Basic radial grid will be enhanced according to radial_multiplier =   2, to contain    69 grid points.
 
  Finished reading input file 'control.in'. Consistency checks are next.
 
  MPI_IN_PLACE appears to work with this MPI implementation.
  | Keeping use_mpi_in_place .true. (see manual).
  Target number of points in a grid batch is not set. Defaulting to  100
  Method for grid partitioning is not set. Defaulting to parallel hash+maxmin partitioning.
  Batch size limit is not set. Defaulting to    200
  By default, will store active basis functions for each batch.
  If in need of memory, prune_basis_once .false. can be used to disable this option.
  communication_type for Hartree potential was not specified.
  Defaulting to calc_hartree .
  Pulay mixer: Number of initial linear mixing iterations not set.
  Defaulting to    0 iterations.
  Work space size for distributed Hartree potential not set.
  Defaulting to   0.200000E+03 MB.
  Algorithm-dependent basis array size parameters:
  | n_max_pulay                         :        5
  Presetting      1001 iterations before the initial mixing cycle
  is restarted anyway using the sc_init_iter criterion / keyword.
  Presetting a factor      1.000 between actual scf density residual
  and density convergence criterion sc_accuracy_rho below which sc_init_iter
  takes no effect.
  Calculation of forces was not defined in control.in. No forces will be calculated.
  Geometry relaxation not requested: no relaxation will be performed.
  No accuracy limit for integral partition fn. given. Defaulting to  0.1000E-14.
  No threshold value for u(r) in integrations given. Defaulting to  0.1000E-05.
  No accuracy for occupation numbers given. Defaulting to  0.1000E-12.
  No threshold value for occupation numbers given. Defaulting to  0.0000E+00.
  No accuracy for fermi level given. Defaulting to  0.1000E-19.
  Maximum # of iterations to find E_F not set. Defaulting to  200.
  Will not use alltoall communication since running on < 1024 CPUs.
  partition_type (choice of integration weights) for integrals was not specified.
  | Using a version of the partition function of Stratmann and coworkers ('stratmann_sparse').
  | At each grid point, the set of atoms used to build the partition table is smoothly restricted to
  | only those atoms whose free-atom density would be non-zero at that grid point.
  Partitioning for Hartree potential was not defined. Using partition_type for integrals.
  | Adjusted default value of keyword multip_moments_threshold to:       0.10000000E-11
  | This value may affect high angular momentum components of the Hartree potential in periodic systems.
  No q(lm)/r^(l+1) cutoff set for long-range Hartree potential.
  | Using default value of  0.100000E-09 .
  | Verify using the multipole_threshold keyword.
  Defaulting to new monopole extrapolation.
  Density update method: automatic selection selected.
 * Warning: use_local_index and/or load_balancing needs packed_matrix_format = index
 * Changing the default setting to packed_matrix_format = index
------------------------------------------------------------


------------------------------------------------------------
          Reading geometry description geometry.in.
------------------------------------------------------------
  Input structure read successfully.
  The structure contains       62 atoms,  and a total of        222.000 electrons.

  Input geometry:
  | No unit cell requested.
  | Atomic structure:
  |       Atom                x [A]            y [A]            z [A]
  |    1: Species H             8.95713800       18.72509600       29.68265800
  |    2: Species C             9.80497600       19.01342300       30.32027900
  |    3: Species H             9.43894000       19.85612500       30.92060200
  |    4: Species C            10.16645700       17.84567900       31.24182300
  |    5: Species C            10.98550000       19.47459600       29.44349300
  |    6: Species H             9.27998600       17.59392100       31.84203100
  |    7: Species C            10.64184400       16.62557100       30.48898000
  |    8: Species H            10.93641500       18.17738100       31.95530200
  |    9: Species C            10.71222100       20.66659400       28.55867300
  |   10: Species H            11.34078600       18.64184300       28.82756200
  |   11: Species H            11.82296900       19.73063000       30.10831200
  |   12: Species H             9.91335200       16.31559200       29.72592300
  |   13: Species H            10.78143900       15.76416000       31.15689800
  |   14: Species H            11.60464700       16.79753400       29.98827100
  |   15: Species C            10.59937700       20.58222200       27.20217900
  |   16: Species C            10.68309000       21.97662900       29.20937700
  |   17: Species C            10.55639700       19.30049900       26.46196000
  |   18: Species C            10.66315000       21.79042000       26.36785500
  |   19: Species C            10.30708800       23.12072800       28.44505800
  |   20: Species C            10.90574000       22.14603800       30.58538100
  |   21: Species C             9.94939800       18.15902500       26.93707800
  |   22: Species C            11.18598800       19.25139600       25.18350500
  |   23: Species C            10.20175000       23.03842300       27.02888800
  |   24: Species C            11.26265900       21.74537500       25.13760000
  |   25: Species C            10.03438700       24.35500000       29.10150000
  |   26: Species C            10.71700500       23.39921000       31.18444100
  |   27: Species H            11.21209600       21.30966500       31.20647600
  |   28: Species H             9.35172100       18.20219700       27.84301300
  |   29: Species C            10.04655300       16.94650000       26.26801200
  |   30: Species C            11.34930800       17.99987500       24.52247200
  |   31: Species C            11.63446200       20.46152900       24.55690100
  |   32: Species C             9.67321800       24.10866400       26.33572100
  |   33: Species C            11.68847500       22.99296200       24.36524800
  |   34: Species C             9.54948700       25.44776700       28.32570500
  |   35: Species C            10.27976700       24.46430500       30.48553700
  |   36: Species H            10.92785900       23.49173700       32.24989700
  |   37: Species H             9.54024100       16.07668100       26.68769800
  |   38: Species C            10.77429700       16.83156900       25.11464700
  |   39: Species C            12.06195400       17.95063300       23.30139800
  |   40: Species C            12.31860800       20.33807500       23.34041800
  |   41: Species H             9.47861100       24.03028000       25.26969200
  |   42: Species C             9.35220400       25.29251400       26.99216400
  |   43: Species C            10.87764900       23.32404900       23.11089200
  |   44: Species H            12.73750800       22.84644300       24.06640600
  |   45: Species H            11.68875200       23.84764200       25.05095400
  |   46: Species H             9.34835200       26.39840700       28.81620000
  |   47: Species H            10.12033300       25.42905300       30.96880200
  |   48: Species H            10.89812200       15.87358100       24.61015100
  |   49: Species H            12.22226300       16.98571200       22.82008400
  |   50: Species C            12.52960100       19.09284800       22.75283300
  |   51: Species H            12.67315200       21.22433500       22.82169100
  |   52: Species H             8.95862300       26.12302100       26.40917000
  |   53: Species H            10.82700400       22.44756400       22.45008900
  |   54: Species H             9.83282300       23.53751800       23.38127300
  |   55: Species C            11.45177900       24.51134100       22.32935900
  |   56: Species H            13.07632700       19.05224000       21.81063200
  |   57: Species H            10.87465100       24.63998700       21.40552000
  |   58: Species C            11.44859000       25.81701700       23.11433500
  |   59: Species H            12.47977600       24.27511000       22.01238500
  |   60: Species H            10.44949200       26.03375900       23.52002100
  |   61: Species H            12.15069900       25.79695400       23.95807000
  |   62: Species H            11.73438000       26.66351600       22.47602600
  |

  | The smallest distance between any two atoms is         1.08587881 AA.
  |
  | The first atom of this pair is atom number                     20 .
  | The second atom of this pair is atom number                    27 .

  Number of empty states per atom not set in control.in - providing a guess from actual geometry.
  | Total number of empty states used during s.c.f. cycle:      141
  If you use a very high smearing, use empty_states (per atom!) in control.in to increase this value.

  Structure-dependent array size parameters: 
  | Maximum number of distinct radial functions  :       18
  | Maximum number of basis functions            :     1698
  | Number of Kohn-Sham states (occupied + empty):      252
------------------------------------------------------------

------------------------------------------------------------
          Preparing all fixed parts of the calculation.
------------------------------------------------------------
  Determining machine precision:
    2.225073858507201E-308
  Setting up grids for atomic and cluster calculations.

  Creating wave function, potential, and density for free atoms.

  Species: H

  List of occupied orbitals and eigenvalues:
    n    l              occ      energy [Ha]    energy [eV]
    1    0           1.0000        -0.238386        -6.4868


  Species: C

  List of occupied orbitals and eigenvalues:
    n    l              occ      energy [Ha]    energy [eV]
    1    0           2.0000       -10.049212      -273.4530
    2    0           2.0000        -0.504761       -13.7352
    2    1           2.0000        -0.193631        -5.2690

  Creating fixed part of basis set: Ionic, confined, hydrogenic.
 
  H                    hydrogenic:
 
  List of hydrogenic basis orbitals: 
    n    l      effective z      eigenvalue [eV]  inner max. [A]     outer max. [A]     outer radius [A]   
    2    0         2.100000       -14.9965           0.193243           1.317208           5.373006
    2    1         3.500000       -41.6672           0.602369           0.602369           4.056063
    1    0         0.850000        -9.8292           0.624871           0.624871           5.373006
    2    1         3.700000       -46.5653           0.573622           0.573622           3.910002
    2    0         1.200000        -4.5995           0.334980           2.228188           5.505995
    3    2         7.000000       -74.0753           0.680699           0.680699           3.769201
 
 
  C                    hydrogenic:
 
  List of hydrogenic basis orbitals: 
    n    l      effective z      eigenvalue [eV]  inner max. [A]     outer max. [A]     outer radius [A]   
    2    1         1.700000        -9.8152           1.245706           1.245706           5.401630
    3    2         6.000000       -54.4226           0.792453           0.792453           4.178599
    2    0         4.900000       -81.6681           0.082559           0.562749           3.353238
    4    3         9.800000       -81.6681           0.863254           0.863254           4.028125
    3    1         5.200000       -40.8774           0.305389           1.215618           4.898362
    3    0         4.300000       -27.9508           0.091041           1.610311           5.401630
    5    4        14.400000      -112.8510           0.917666           0.917666           3.883070
    3    2         6.200000       -58.1113           0.763917           0.763917           4.077671
 

  Adding cutoff potential to free-atom effective potential.
  Creating atomic-like basis functions for current effective potential.

  Species H                   :

  List of atomic basis orbitals and eigenvalues:
    n    l      energy [Ha]    energy [eV]    outer radius [A]
    1    0        -0.238386        -6.4868       5.373006


  Species C                   :

  List of atomic basis orbitals and eigenvalues:
    n    l      energy [Ha]    energy [eV]    outer radius [A]
    1    0       -10.049212      -273.4530       1.934409
    2    0        -0.504761       -13.7352       5.271162
    2    1        -0.193631        -5.2690       5.401630

  Assembling full basis from fixed parts.
  | Species H :   atomic orbital   1 s accepted.
  | Species H :    hydro orbital   2 s accepted.
  | Species H :    hydro orbital   1 s accepted.
  | Species H :    hydro orbital   2 s accepted.
  | Species H :    hydro orbital   2 p accepted.
  | Species H :    hydro orbital   2 p accepted.
  | Species H :    hydro orbital   3 d accepted.
  | Species C :   atomic orbital   1 s accepted.
  | Species C :    hydro orbital   2 s accepted.
  | Species C :   atomic orbital   2 s accepted.
  | Species C :    hydro orbital   3 s accepted.
  | Species C :    hydro orbital   3 p accepted.
  | Species C :   atomic orbital   2 p accepted.
  | Species C :    hydro orbital   2 p accepted.
  | Species C :    hydro orbital   3 d accepted.
  | Species C :    hydro orbital   3 d accepted.
  | Species C :    hydro orbital   4 f accepted.
  | Species C :    hydro orbital   5 g accepted.
 
  Basis size parameters after reduction:
  | Total number of radial functions:       18
  | Total number of basis functions :     1698
 
  Per-task memory consumption for arrays in subroutine allocate_ext:
  |           4.453376MB.
  Testing on-site integration grid accuracy.
  |  Species  Function  <phi|h_atom|phi> (log., in eV)  <phi|h_atom|phi> (rad., in eV)
           1        1                 -6.4870767962                 -6.4871688290
           1        2                 13.5032046589                 13.5028982997
           1        3                 32.8195184817                 32.8119941656
           1        4                 33.8513856511                 33.7670005767 ***
           1        5                 28.8544614965                 28.8544615203
           1        6                 59.6326952547                 59.6327656460
           1        7                 60.2719308513                 60.2719305949
           2        8               -273.4529726040               -273.4529710464
           2        9                -10.7721037319                -10.7721022101
           2       10                 17.6044132601                 17.6044162063
           2       11                 53.7706460658                 53.7706913770
           2       12                 15.0973290362                 15.0973256030
           2       13                  3.8545134692                  3.8545724687
           2       14                 12.1156992592                 12.1182024431
           2       15                 29.4352039302                 29.4352041816
           2       16                 54.8741144708                 54.8740268729
           2       17                 59.3556032049                 59.3556031382
           2       18                 93.4551837154                 93.4551838009
 * Note: Onsite integrals marked "***" above are less accurate than
 * onsite_accuracy_threshold =    0.03000 eV. Usually, this is harmless.
 * When in doubt, tighten the "radial" and/or "radial_multiplier" flags to check.

  Preparing densities etc. for the partition functions (integrals / Hartree potential).

  Preparations completed.
  max(cpu_time)          :      0.191 s.
  Wall clock time (cpu1) :      0.187 s.
------------------------------------------------------------

------------------------------------------------------------
          Begin self-consistency loop: Initialization.

          Date     :  20210620, Time     :  172430.272
------------------------------------------------------------

  Initializing index lists of integration centers etc. from given atomic structure:
  | Number of centers in hartree potential         :        62
  | Number of centers in hartree multipole         :        62
  | Number of centers in electron density summation:        62
  | Number of centers in basis integrals           :        62
  | Number of centers in integrals                 :        62
  | Number of centers in hamiltonian               :        62
  * Using 56 tasks for Scalapack Eigenvalue solver.
  Detailed listing of tasks and assigned k-points:
  (for non-periodic systems, the "k-point" denotes an internal label only)
   Task     0 k-point     1 on d021
   Task     1 k-point     1 on d021
   Task     2 k-point     1 on d021
   Task     3 k-point     1 on d021
   Task     4 k-point     1 on d021
   Task     5 k-point     1 on d021
   Task     6 k-point     1 on d021
   Task     7 k-point     1 on d021
   Task     8 k-point     1 on d021
   Task     9 k-point     1 on d021
   Task    10 k-point     1 on d021
   Task    11 k-point     1 on d021
   Task    12 k-point     1 on d021
   Task    13 k-point     1 on d021
   Task    14 k-point     1 on d021
   Task    15 k-point     1 on d021
   Task    16 k-point     1 on d021
   Task    17 k-point     1 on d021
   Task    18 k-point     1 on d021
   Task    19 k-point     1 on d021
   Task    20 k-point     1 on d021
   Task    21 k-point     1 on d021
   Task    22 k-point     1 on d021
   Task    23 k-point     1 on d021
   Task    24 k-point     1 on d021
   Task    25 k-point     1 on d021
   Task    26 k-point     1 on d021
   Task    27 k-point     1 on d021
   Task    28 k-point     1 on d021
   Task    29 k-point     1 on d021
   Task    30 k-point     1 on d021
   Task    31 k-point     1 on d021
   Task    32 k-point     1 on d021
   Task    33 k-point     1 on d021
   Task    34 k-point     1 on d021
   Task    35 k-point     1 on d021
   Task    36 k-point     1 on d021
   Task    37 k-point     1 on d021
   Task    38 k-point     1 on d021
   Task    39 k-point     1 on d021
   Task    40 k-point     1 on d021
   Task    41 k-point     1 on d021
   Task    42 k-point     1 on d021
   Task    43 k-point     1 on d021
   Task    44 k-point     1 on d021
   Task    45 k-point     1 on d021
   Task    46 k-point     1 on d021
   Task    47 k-point     1 on d021
   Task    48 k-point     1 on d021
   Task    49 k-point     1 on d021
   Task    50 k-point     1 on d021
   Task    51 k-point     1 on d021
   Task    52 k-point     1 on d021
   Task    53 k-point     1 on d021
   Task    54 k-point     1 on d021
   Task    55 k-point     1 on d021
  Tasks:    56 split into      8 X      7 BLACS grid
  Calculating block size based on n_basis =         1698 max_nprow =            8 max_npcol =            7
  ScaLAPACK block size set to:           16
  Allocating        0.459 MB for ovlp
  Allocating        0.459 MB for ham
  Allocating        0.459 MB for eigenvec
  Required Scalapack workspace - INTEGER:            1 REAL:             1
  Partitioning the integration grid into batches with parallel hashing+maxmin method.
  | Number of batches:     9088
  | Maximal batch size:     200
  | Minimal batch size:      10
  | Average batch size:     111.355
  | Standard deviation of batch sizes:      30.189

  Integration load balanced across     56 MPI tasks.
  Work distribution over tasks is as follows:
  Task      0 has      18202 integration points.
  Task      1 has      18143 integration points.
  Task      2 has      18037 integration points.
  Task      3 has      18204 integration points.
  Task      4 has      18047 integration points.
  Task      5 has      18066 integration points.
  Task      6 has      17993 integration points.
  Task      7 has      18172 integration points.
  Task      8 has      18092 integration points.
  Task      9 has      17952 integration points.
  Task     10 has      18256 integration points.
  Task     11 has      17912 integration points.
  Task     12 has      18117 integration points.
  Task     13 has      17999 integration points.
  Task     14 has      18151 integration points.
  Task     15 has      18065 integration points.
  Task     16 has      18032 integration points.
  Task     17 has      18150 integration points.
  Task     18 has      18063 integration points.
  Task     19 has      18168 integration points.
  Task     20 has      17908 integration points.
  Task     21 has      18073 integration points.
  Task     22 has      18140 integration points.
  Task     23 has      17987 integration points.
  Task     24 has      18122 integration points.
  Task     25 has      17982 integration points.
  Task     26 has      18099 integration points.
  Task     27 has      17982 integration points.
  Task     28 has      18112 integration points.
  Task     29 has      18149 integration points.
  Task     30 has      17992 integration points.
  Task     31 has      18200 integration points.
  Task     32 has      17986 integration points.
  Task     33 has      18129 integration points.
  Task     34 has      17976 integration points.
  Task     35 has      18166 integration points.
  Task     36 has      18147 integration points.
  Task     37 has      17958 integration points.
  Task     38 has      18079 integration points.
  Task     39 has      18065 integration points.
  Task     40 has      18041 integration points.
  Task     41 has      17961 integration points.
  Task     42 has      18157 integration points.
  Task     43 has      18061 integration points.
  Task     44 has      18031 integration points.
  Task     45 has      18135 integration points.
  Task     46 has      18050 integration points.
  Task     47 has      18142 integration points.
  Task     48 has      17885 integration points.
  Task     49 has      18095 integration points.
  Task     50 has      18135 integration points.
  Task     51 has      17993 integration points.
  Task     52 has      18145 integration points.
  Task     53 has      18074 integration points.
  Task     54 has      18153 integration points.
  Task     55 has      17865 integration points.
  Initializing partition tables, free-atom densities, potentials, etc. across the integration grid (initialize_grid_storage).
  | initialize_grid_storage: Actual outermost partition radius vs. multipole_radius_free
  | (-- VB: in principle, multipole_radius_free should be larger, hence this output)
  | Species        1: Confinement radius =              6.000000000000000 AA, multipole_radius_free =              6.071692442739658 AA.
  | Species        1: outer_partition_radius set to              6.071692442739658 AA .
  | Species        2: Confinement radius =              6.000000000000000 AA, multipole_radius_free =              6.029870734432609 AA.
  | Species        2: outer_partition_radius set to              6.029870734432609 AA .
  | The sparse table of interatomic distances needs     45.6360 kbyte instead of    30.7520 kbyte of memory.
  | Using the partition_type stratmann_smoother will reduce your memory usage.
  | Net number of integration points:  1011996
  | of which are non-zero points    :   783054
  Renormalizing the initial density to the exact electron count on the 3D integration grid.
  | Initial density: Formal number of electrons (from input files) :     222.0000000000
  | Integrated number of electrons on 3D grid     :     222.0001796642
  | Charge integration error                      :       0.0001796642
  | Normalization factor for density and gradient :       0.9999991907
  Obtaining max. number of non-zero basis functions in each batch (get_n_compute_maxes).
  | Maximal number of non-zero basis functions:     1085
  Selecting the method for density update.
  Loop over occupied states selected for charge density update.
  Hamiltonian matrix size:
  | Size of matrix non-packed:               1442451
  | Size of matrix packed:         1280084
  Allocating        3.423 MB for KS_eigenvector
  use_local_index: Max. local matrix size =      1014801
  Task:     0 matrix size:     218778
  Task:     1 matrix size:     379769
  Task:     2 matrix size:     412412
  Task:     3 matrix size:     520497
  Task:     4 matrix size:     732243
  Task:     5 matrix size:     991020
  Task:     6 matrix size:     980078
  Task:     7 matrix size:     161575
  Task:     8 matrix size:     303482
  Task:     9 matrix size:     395917
  Task:    10 matrix size:     349565
  Task:    11 matrix size:     571448
  Task:    12 matrix size:     947544
  Task:    13 matrix size:     788217
  Task:    14 matrix size:     398257
  Task:    15 matrix size:     236322
  Task:    16 matrix size:     166176
  Task:    17 matrix size:     796429
  Task:    18 matrix size:     838794
  Task:    19 matrix size:     374002
  Task:    20 matrix size:     473641
  Task:    21 matrix size:     294436
  Task:    22 matrix size:     174936
  Task:    23 matrix size:     138601
  Task:    24 matrix size:     824894
  Task:    25 matrix size:     740008
  Task:    26 matrix size:     473511
  Task:    27 matrix size:     454771
  Task:    28 matrix size:     331590
  Task:    29 matrix size:     706714
  Task:    30 matrix size:     852592
  Task:    31 matrix size:     224115
  Task:    32 matrix size:     110215
  Task:    33 matrix size:     447218
  Task:    34 matrix size:     286533
  Task:    35 matrix size:     506264
  Task:    36 matrix size:     869936
  Task:    37 matrix size:     871074
  Task:    38 matrix size:     201295
  Task:    39 matrix size:     113526
  Task:    40 matrix size:     433388
  Task:    41 matrix size:     262428
  Task:    42 matrix size:     950353
  Task:    43 matrix size:     715189
  Task:    44 matrix size:     457492
  Task:    45 matrix size:     468215
  Task:    46 matrix size:     271292
  Task:    47 matrix size:     248101
  Task:    48 matrix size:     169035
  Task:    49 matrix size:    1014801
  Task:    50 matrix size:     670686
  Task:    51 matrix size:     372098
  Task:    52 matrix size:     731921
  Task:    53 matrix size:     473665
  Task:    54 matrix size:     295968
  Task:    55 matrix size:     211551
  Integrating Hamiltonian matrix: batch-based integration.
  Time summed over all CPUs for integration: real work      200.141 s, elapsed      372.557 s
  Time get_set_sparse_local_matrix_scalapack:     0.019525 s
  Start compute_balanced_batch_distribution
  Done load balancing, time needed:      0.010 s
  Integrating overlap matrix with loadbalancing
  Time summed over all CPUs for integration: real work       56.826 s, elapsed       67.545 s
  Time get_set_full_local_matrix_scalapack:     0.022274 s

  Updating Kohn-Sham eigenvalues and eigenvectors using ELSI and the ELPA eigensolver.
  Overlap matrix is not singular
  | Lowest and highest eigenvalues :  0.13E+02,  0.91E-04
  Finished singularity check of overlap matrix
  | Time :     0.112 s
  Finished Cholesky decomposition
  | Time :     0.076 s
  Finished transformation to standard eigenproblem
  | Time :     0.020 s
  Starting ELPA eigensolver
  Finished solving standard eigenproblem
  | Time :     0.119 s
  Finished back-transformation of eigenvectors
  | Time :     0.005 s

  Obtaining occupation numbers and chemical potential using ELSI.
  | Chemical potential (Fermi level):    -8.11442605 eV
  Writing Kohn-Sham eigenvalues.

  State    Occupation    Eigenvalue [Ha]    Eigenvalue [eV]
      1       2.00000         -10.180779         -277.03308
      2       2.00000         -10.179622         -277.00160
      3       2.00000         -10.176895         -276.92739
      4       2.00000         -10.176313         -276.91156
      5       2.00000         -10.176307         -276.91141
      6       2.00000         -10.174977         -276.87521
      7       2.00000         -10.174569         -276.86410
      8       2.00000         -10.174131         -276.85219
      9       2.00000         -10.173719         -276.84099
     10       2.00000         -10.173256         -276.82839
     11       2.00000         -10.173190         -276.82657
     12       2.00000         -10.173186         -276.82647
     13       2.00000         -10.172173         -276.79890
     14       2.00000         -10.172053         -276.79566
     15       2.00000         -10.171681         -276.78553
     16       2.00000         -10.171477         -276.77997
     17       2.00000         -10.171279         -276.77457
     18       2.00000         -10.169706         -276.73179
     19       2.00000         -10.168547         -276.70025
     20       2.00000         -10.168004         -276.68547
     21       2.00000         -10.166133         -276.63457
     22       2.00000         -10.164623         -276.59347
     23       2.00000         -10.164593         -276.59266
     24       2.00000         -10.164093         -276.57904
     25       2.00000         -10.163475         -276.56221
     26       2.00000         -10.162991         -276.54907
     27       2.00000         -10.161758         -276.51552
     28       2.00000         -10.161710         -276.51421
     29       2.00000         -10.160662         -276.48567
     30       2.00000         -10.159102         -276.44324
     31       2.00000         -10.159033         -276.44134
     32       2.00000         -10.156946         -276.38455
     33       2.00000          -1.019519          -27.74251
     34       2.00000          -1.009802          -27.47810
     35       2.00000          -0.973777          -26.49783
     36       2.00000          -0.971848          -26.44532
     37       2.00000          -0.965791          -26.28052
     38       2.00000          -0.946764          -25.76275
     39       2.00000          -0.937133          -25.50069
     40       2.00000          -0.924413          -25.15455
     41       2.00000          -0.908282          -24.71560
     42       2.00000          -0.886940          -24.13486
     43       2.00000          -0.881977          -23.99983
     44       2.00000          -0.880819          -23.96830
     45       2.00000          -0.879636          -23.93612
     46       2.00000          -0.858648          -23.36499
     47       2.00000          -0.856191          -23.29813
     48       2.00000          -0.834666          -22.71242
     49       2.00000          -0.804125          -21.88136
     50       2.00000          -0.785766          -21.38178
     51       2.00000          -0.778580          -21.18625
     52       2.00000          -0.772445          -21.01929
     53       2.00000          -0.764504          -20.80321
     54       2.00000          -0.757948          -20.62481
     55       2.00000          -0.752626          -20.47998
     56       2.00000          -0.728619          -19.82674
     57       2.00000          -0.718501          -19.55142
     58       2.00000          -0.713233          -19.40807
     59       2.00000          -0.698778          -19.01471
     60       2.00000          -0.673523          -18.32750
     61       2.00000          -0.670596          -18.24785
     62       2.00000          -0.655254          -17.83037
     63       2.00000          -0.653383          -17.77946
     64       2.00000          -0.648593          -17.64911
     65       2.00000          -0.639044          -17.38927
     66       2.00000          -0.638889          -17.38506
     67       2.00000          -0.613059          -16.68218
     68       2.00000          -0.609571          -16.58728
     69       2.00000          -0.607649          -16.53497
     70       2.00000          -0.606749          -16.51048
     71       2.00000          -0.597364          -16.25510
     72       2.00000          -0.593488          -16.14963
     73       2.00000          -0.590927          -16.07994
     74       2.00000          -0.588282          -16.00796
     75       2.00000          -0.580798          -15.80430
     76       2.00000          -0.576662          -15.69176
     77       2.00000          -0.575172          -15.65122
     78       2.00000          -0.573568          -15.60757
     79       2.00000          -0.564532          -15.36171
     80       2.00000          -0.555757          -15.12292
     81       2.00000          -0.545821          -14.85255
     82       2.00000          -0.541411          -14.73253
     83       2.00000          -0.540438          -14.70607
     84       2.00000          -0.536235          -14.59169
     85       2.00000          -0.535033          -14.55900
     86       2.00000          -0.532828          -14.49899
     87       2.00000          -0.528300          -14.37578
     88       2.00000          -0.525118          -14.28919
     89       2.00000          -0.524591          -14.27485
     90       2.00000          -0.518706          -14.11471
     91       2.00000          -0.516837          -14.06384
     92       2.00000          -0.504250          -13.72134
     93       2.00000          -0.499865          -13.60203
     94       2.00000          -0.498203          -13.55681
     95       2.00000          -0.492718          -13.40755
     96       2.00000          -0.488814          -13.30131
     97       2.00000          -0.482304          -13.12415
     98       2.00000          -0.481348          -13.09815
     99       2.00000          -0.478233          -13.01340
    100       2.00000          -0.474801          -12.92000
    101       2.00000          -0.472491          -12.85712
    102       2.00000          -0.470099          -12.79205
    103       2.00000          -0.469380          -12.77247
    104       2.00000          -0.460276          -12.52476
    105       2.00000          -0.436597          -11.88040
    106       2.00000          -0.407641          -11.09248
    107       2.00000          -0.398664          -10.84821
    108       2.00000          -0.397617          -10.81971
    109       2.00000          -0.392387          -10.67738
    110       2.00000          -0.378791          -10.30743
    111       2.00000          -0.337308           -9.17861
    112       0.00000          -0.276402           -7.52129
    113       0.00000          -0.231770           -6.30678
    114       0.00000          -0.217006           -5.90504
    115       0.00000          -0.215117           -5.85363
    116       0.00000          -0.213847           -5.81908
    117       0.00000          -0.186285           -5.06907
    118       0.00000          -0.163456           -4.44786
    119       0.00000          -0.118639           -3.22834
    120       0.00000          -0.117738           -3.20383
    121       0.00000          -0.111360           -3.03026
    122       0.00000          -0.089061           -2.42348
    123       0.00000          -0.085705           -2.33215
    124       0.00000          -0.076296           -2.07613
    125       0.00000          -0.068091           -1.85286
    126       0.00000          -0.060805           -1.65460
    127       0.00000          -0.058818           -1.60051
    128       0.00000          -0.057649           -1.56870
    129       0.00000          -0.050807           -1.38252
    130       0.00000          -0.049966           -1.35966
    131       0.00000          -0.049195           -1.33866
    132       0.00000          -0.043497           -1.18360
    133       0.00000          -0.041133           -1.11929
    134       0.00000          -0.037013           -1.00717
    135       0.00000          -0.035180           -0.95729
    136       0.00000          -0.031628           -0.86065
    137       0.00000          -0.026828           -0.73003
    138       0.00000          -0.024692           -0.67189
    139       0.00000          -0.023392           -0.63653
    140       0.00000          -0.022454           -0.61101
    141       0.00000          -0.018006           -0.48997
    142       0.00000          -0.016773           -0.45643
    143       0.00000          -0.011451           -0.31161
    144       0.00000          -0.010409           -0.28324
    145       0.00000          -0.008491           -0.23104
    146       0.00000          -0.006457           -0.17571
    147       0.00000          -0.003788           -0.10308
    148       0.00000          -0.002308           -0.06281
    149       0.00000           0.000579            0.01575
    150       0.00000           0.004118            0.11205
    151       0.00000           0.006624            0.18024
    152       0.00000           0.008947            0.24347
    153       0.00000           0.009544            0.25971
    154       0.00000           0.013642            0.37121
    155       0.00000           0.015580            0.42396
    156       0.00000           0.019749            0.53740
    157       0.00000           0.020737            0.56428
    158       0.00000           0.025802            0.70211
    159       0.00000           0.027333            0.74376
    160       0.00000           0.031562            0.85885
    161       0.00000           0.032572            0.88633
    162       0.00000           0.033180            0.90289
    163       0.00000           0.033951            0.92385
    164       0.00000           0.038966            1.06032
    165       0.00000           0.042398            1.15370
    166       0.00000           0.045932            1.24988
    167       0.00000           0.049594            1.34953
    168       0.00000           0.051320            1.39649
    169       0.00000           0.051745            1.40807
    170       0.00000           0.054312            1.47789
    171       0.00000           0.059080            1.60764
    172       0.00000           0.059338            1.61466
    173       0.00000           0.061995            1.68697
    174       0.00000           0.064470            1.75432
    175       0.00000           0.067179            1.82804
    176       0.00000           0.070816            1.92701
    177       0.00000           0.071954            1.95797
    178       0.00000           0.076722            2.08772
    179       0.00000           0.077913            2.12013
    180       0.00000           0.078961            2.14864
    181       0.00000           0.080570            2.19242
    182       0.00000           0.082753            2.25181
    183       0.00000           0.084476            2.29871
    184       0.00000           0.084904            2.31035
    185       0.00000           0.087231            2.37368
    186       0.00000           0.094597            2.57412
    187       0.00000           0.095137            2.58881
    188       0.00000           0.100185            2.72618
    189       0.00000           0.102689            2.79431
    190       0.00000           0.103272            2.81017
    191       0.00000           0.106881            2.90839
    192       0.00000           0.109463            2.97864
    193       0.00000           0.111826            3.04295
    194       0.00000           0.112578            3.06340
    195       0.00000           0.114255            3.10904
    196       0.00000           0.121505            3.30633
    197       0.00000           0.122952            3.34569
    198       0.00000           0.123797            3.36869
    199       0.00000           0.131108            3.56762
    200       0.00000           0.131663            3.58273
    201       0.00000           0.134550            3.66130
    202       0.00000           0.136781            3.72201
    203       0.00000           0.139561            3.79764
    204       0.00000           0.142670            3.88224
    205       0.00000           0.144699            3.93745
    206       0.00000           0.149681            4.07303
    207       0.00000           0.149709            4.07379
    208       0.00000           0.152290            4.14402
    209       0.00000           0.152557            4.15129
    210       0.00000           0.155574            4.23339
    211       0.00000           0.159043            4.32779
    212       0.00000           0.161575            4.39668
    213       0.00000           0.162032            4.40912
    214       0.00000           0.164078            4.46480
    215       0.00000           0.166292            4.52504
    216       0.00000           0.166427            4.52871
    217       0.00000           0.168826            4.59400
    218       0.00000           0.172333            4.68941
    219       0.00000           0.173531            4.72201
    220       0.00000           0.176090            4.79166
    221       0.00000           0.180113            4.90111
    222       0.00000           0.183175            4.98446
    223       0.00000           0.186466            5.07399
    224       0.00000           0.187508            5.10236
    225       0.00000           0.196058            5.33500
    226       0.00000           0.196428            5.34508
    227       0.00000           0.197822            5.38301
    228       0.00000           0.200436            5.45415
    229       0.00000           0.200679            5.46076
    230       0.00000           0.204131            5.55467
    231       0.00000           0.205565            5.59371
    232       0.00000           0.208571            5.67550
    233       0.00000           0.213627            5.81308
    234       0.00000           0.216022            5.87826
    235       0.00000           0.220698            6.00551
    236       0.00000           0.223524            6.08240
    237       0.00000           0.225652            6.14030
    238       0.00000           0.228470            6.21698
    239       0.00000           0.232669            6.33124
    240       0.00000           0.240141            6.53458
    241       0.00000           0.242862            6.60862
    242       0.00000           0.244344            6.64894
    243       0.00000           0.247963            6.74741
    244       0.00000           0.250319            6.81151
    245       0.00000           0.254039            6.91276
    246       0.00000           0.258065            7.02230
    247       0.00000           0.260013            7.07532
    248       0.00000           0.260387            7.08549
    249       0.00000           0.263481            7.16968
    250       0.00000           0.267453            7.27777
    251       0.00000           0.270561            7.36235
    252       0.00000           0.273520            7.44285

  Highest occupied state (VBM) at     -9.17860999 eV
  | Occupation number:      2.00000000

  Lowest unoccupied state (CBM) at    -7.52129242 eV
  | Occupation number:      0.00000000

  Overall HOMO-LUMO gap:      1.65731757 eV.
  Calculating total energy contributions from superposition of free atom densities.

  Total energy components:
  | Sum of eigenvalues            :        -752.21655660 Ha      -20468.85394895 eV
  | XC energy correction          :        -179.85547484 Ha       -4894.11648022 eV
  | XC potential correction       :         231.06677953 Ha        6287.64698301 eV
  | Free-atom electrostatic energy:        -537.60952819 Ha      -14629.09958234 eV
  | Hartree energy correction     :           0.00000000 Ha           0.00000000 eV
  | Entropy correction            :           0.00000000 Ha           0.00000000 eV
  | ---------------------------
  | Total energy                  :       -1238.61478009 Ha      -33704.42302851 eV
  | Total energy, T -> 0          :       -1238.61478009 Ha      -33704.42302851 eV  <-- do not rely on this value for anything but (periodic) metals
  | Electronic free energy        :       -1238.61478009 Ha      -33704.42302851 eV

  Derived energy quantities:
  | Kinetic energy                :        1224.74230443 Ha       33326.93375937 eV
  | Electrostatic energy          :       -2283.50160969 Ha      -62137.24030765 eV
  | Energy correction for multipole
  | error in Hartree potential    :           0.00000000 Ha           0.00000000 eV
  | Sum of eigenvalues per atom                           :        -330.14280563 eV
  | Total energy (T->0) per atom                          :        -543.61972627 eV  <-- do not rely on this value for anything but (periodic) metals
  | Electronic free energy per atom                       :        -543.61972627 eV
  Initialize hartree_potential_storage
  Max. number of atoms included in rho_multipole:           62

  End scf initialization - timings             :  max(cpu_time)    wall_clock(cpu1)
  | Time for scf. initialization               :       10.614 s          10.674 s
  | Boundary condition initialization          :        0.001 s           0.003 s
  | Integration                                :        7.931 s           7.938 s
  | Solution of K.-S. eqns.                    :        0.356 s           0.374 s
  | Grid partitioning                          :        0.891 s           0.896 s
  | Preloading free-atom quantities on grid    :        0.014 s           0.016 s
  | Free-atom superposition energy             :        0.101 s           0.102 s
  | Total energy evaluation                    :        0.001 s           0.003 s

  Partial memory accounting:
  | Current value for overall tracked memory usage on task 0  :           5.675 MB
  | Peak value for overall tracked memory usage on task 0     :          32.493 MB after allocating zora_vector2
  | Largest tracked array allocation on task 0 so far         :           9.418 MB  when allocating hamiltonian_shell
  Note:  These values currently only include a subset of arrays which are explicitly tracked.
  The "true" memory usage will be greater.
------------------------------------------------------------

------------------------------------------------------------
          Begin self-consistency iteration #    1

  Date     :  20210620, Time     :  172440.949
------------------------------------------------------------
  Evaluating new KS density.
  Integration grid: deviation in total charge (<rho> - N_e) =  -2.842171E-14
  Pulay mixing of updated and previous charge densities.

  Evaluating partitioned Hartree potential by multipole expansion.
  | Analytical far-field extrapolation by fixed multipoles:
  | Hartree multipole sum: apparent total charge =   0.169930E-03
  Summing up the Hartree potential with load balancing.
  Time summed over all CPUs for potential: real work       37.757 s, elapsed       64.224 s
  | RMS charge density error from multipole expansion :   0.142859E-01

  Start compute_balanced_batch_distribution
  Done load balancing, time needed:      0.009 s
  Integrating Hamiltonian matrix: batch-based integration with load balancing
  Time summed over all CPUs for integration: real work      221.330 s, elapsed      247.503 s
  Time get_set_full_local_matrix_scalapack:     0.022206 s
  Start compute_balanced_batch_distribution
  Done load balancing, time needed:      0.009 s

  Updating Kohn-Sham eigenvalues and eigenvectors using ELSI and the ELPA eigensolver.
  Finished transformation to standard eigenproblem
  | Time :     0.022 s
  Starting ELPA eigensolver
  Finished solving standard eigenproblem
  | Time :     0.118 s
  Finished back-transformation of eigenvectors
  | Time :     0.005 s

  Obtaining occupation numbers and chemical potential using ELSI.
  | Chemical potential (Fermi level):    -4.76596404 eV
  Writing Kohn-Sham eigenvalues.

  State    Occupation    Eigenvalue [Ha]    Eigenvalue [eV]
      1       2.00000          -9.987349         -271.76960
      2       2.00000          -9.985004         -271.70578
      3       2.00000          -9.981976         -271.62339
      4       2.00000          -9.978664         -271.53326
      5       2.00000          -9.978295         -271.52322
      6       2.00000          -9.976718         -271.48030
      7       2.00000          -9.976631         -271.47794
      8       2.00000          -9.976340         -271.47004
      9       2.00000          -9.971958         -271.35078
     10       2.00000          -9.971007         -271.32492
     11       2.00000          -9.969081         -271.27250
     12       2.00000          -9.967168         -271.22044
     13       2.00000          -9.951389         -270.79106
     14       2.00000          -9.951214         -270.78632
     15       2.00000          -9.948712         -270.71823
     16       2.00000          -9.947287         -270.67945
     17       2.00000          -9.945224         -270.62333
     18       2.00000          -9.944742         -270.61019
     19       2.00000          -9.943152         -270.56694
     20       2.00000          -9.942703         -270.55472
     21       2.00000          -9.942609         -270.55215
     22       2.00000          -9.941250         -270.51518
     23       2.00000          -9.940506         -270.49492
     24       2.00000          -9.940144         -270.48507
     25       2.00000          -9.926603         -270.11660
     26       2.00000          -9.925017         -270.07344
     27       2.00000          -9.916008         -269.82832
     28       2.00000          -9.915288         -269.80871
     29       2.00000          -9.912235         -269.72565
     30       2.00000          -9.910779         -269.68601
     31       2.00000          -9.889380         -269.10371
     32       2.00000          -9.888324         -269.07498
     33       2.00000          -0.875327          -23.81886
     34       2.00000          -0.858201          -23.35283
     35       2.00000          -0.825765          -22.47020
     36       2.00000          -0.821222          -22.34659
     37       2.00000          -0.809380          -22.02434
     38       2.00000          -0.789892          -21.49407
     39       2.00000          -0.775800          -21.11058
     40       2.00000          -0.771431          -20.99170
     41       2.00000          -0.756331          -20.58080
     42       2.00000          -0.737283          -20.06250
     43       2.00000          -0.731594          -19.90768
     44       2.00000          -0.730887          -19.88843
     45       2.00000          -0.728304          -19.81815
     46       2.00000          -0.701539          -19.08985
     47       2.00000          -0.701152          -19.07932
     48       2.00000          -0.682593          -18.57431
     49       2.00000          -0.653879          -17.79295
     50       2.00000          -0.637141          -17.33748
     51       2.00000          -0.632944          -17.22329
     52       2.00000          -0.628283          -17.09646
     53       2.00000          -0.622833          -16.94815
     54       2.00000          -0.610055          -16.60043
     55       2.00000          -0.605961          -16.48903
     56       2.00000          -0.584781          -15.91270
     57       2.00000          -0.575206          -15.65215
     58       2.00000          -0.569997          -15.51040
     59       2.00000          -0.558866          -15.20751
     60       2.00000          -0.536797          -14.60698
     61       2.00000          -0.524703          -14.27790
     62       2.00000          -0.520171          -14.15458
     63       2.00000          -0.513699          -13.97847
     64       2.00000          -0.508309          -13.83179
     65       2.00000          -0.500998          -13.63285
     66       2.00000          -0.497864          -13.54758
     67       2.00000          -0.475317          -12.93402
     68       2.00000          -0.470606          -12.80584
     69       2.00000          -0.465275          -12.66078
     70       2.00000          -0.460793          -12.53882
     71       2.00000          -0.456214          -12.41421
     72       2.00000          -0.447002          -12.16355
     73       2.00000          -0.444288          -12.08969
     74       2.00000          -0.437580          -11.90715
     75       2.00000          -0.436620          -11.88103
     76       2.00000          -0.433500          -11.79614
     77       2.00000          -0.432542          -11.77008
     78       2.00000          -0.430020          -11.70145
     79       2.00000          -0.426762          -11.61280
     80       2.00000          -0.410859          -11.18005
     81       2.00000          -0.409420          -11.14090
     82       2.00000          -0.407160          -11.07938
     83       2.00000          -0.401946          -10.93751
     84       2.00000          -0.399999          -10.88453
     85       2.00000          -0.398011          -10.83042
     86       2.00000          -0.394544          -10.73609
     87       2.00000          -0.389629          -10.60235
     88       2.00000          -0.387705          -10.54999
     89       2.00000          -0.386515          -10.51761
     90       2.00000          -0.376232          -10.23780
     91       2.00000          -0.370529          -10.08260
     92       2.00000          -0.366521           -9.97354
     93       2.00000          -0.360052           -9.79751
     94       2.00000          -0.357088           -9.71686
     95       2.00000          -0.351896           -9.57558
     96       2.00000          -0.350338           -9.53319
     97       2.00000          -0.346947           -9.44090
     98       2.00000          -0.340197           -9.25723
     99       2.00000          -0.339797           -9.24633
    100       2.00000          -0.337882           -9.19423
    101       2.00000          -0.335415           -9.12711
    102       2.00000          -0.334994           -9.11566
    103       2.00000          -0.334089           -9.09103
    104       2.00000          -0.320141           -8.71148
    105       2.00000          -0.311134           -8.46638
    106       2.00000          -0.281870           -7.67007
    107       2.00000          -0.270928           -7.37233
    108       2.00000          -0.267910           -7.29020
    109       2.00000          -0.266907           -7.26290
    110       2.00000          -0.251659           -6.84799
    111       2.00000          -0.210463           -5.72698
    112       0.00000          -0.151692           -4.12775
    113       0.00000          -0.107047           -2.91291
    114       0.00000          -0.095370           -2.59516
    115       0.00000          -0.087642           -2.38486
    116       0.00000          -0.086615           -2.35691
    117       0.00000          -0.062963           -1.71331
    118       0.00000          -0.040998           -1.11560
    119       0.00000          -0.032886           -0.89487
    120       0.00000          -0.031510           -0.85744
    121       0.00000          -0.027170           -0.73934
    122       0.00000          -0.020816           -0.56642
    123       0.00000          -0.014440           -0.39294
    124       0.00000          -0.010862           -0.29558
    125       0.00000          -0.007170           -0.19511
    126       0.00000          -0.003352           -0.09120
    127       0.00000          -0.001818           -0.04948
    128       0.00000           0.004017            0.10932
    129       0.00000           0.005317            0.14467
    130       0.00000           0.009598            0.26116
    131       0.00000           0.010933            0.29750
    132       0.00000           0.014456            0.39338
    133       0.00000           0.017110            0.46560
    134       0.00000           0.018235            0.49620
    135       0.00000           0.027744            0.75495
    136       0.00000           0.031117            0.84674
    137       0.00000           0.034169            0.92978
    138       0.00000           0.037897            1.03122
    139       0.00000           0.038539            1.04871
    140       0.00000           0.041559            1.13087
    141       0.00000           0.043749            1.19046
    142       0.00000           0.044979            1.22393
    143       0.00000           0.048864            1.32965
    144       0.00000           0.052957            1.44104
    145       0.00000           0.056066            1.52563
    146       0.00000           0.058046            1.57952
    147       0.00000           0.066532            1.81044
    148       0.00000           0.071238            1.93849
    149       0.00000           0.074726            2.03339
    150       0.00000           0.079380            2.16005
    151       0.00000           0.085805            2.33487
    152       0.00000           0.087655            2.38521
    153       0.00000           0.089109            2.42478
    154       0.00000           0.092511            2.51734
    155       0.00000           0.094674            2.57621
    156       0.00000           0.098111            2.66972
    157       0.00000           0.099019            2.69444
    158       0.00000           0.101384            2.75880
    159       0.00000           0.104070            2.83190
    160       0.00000           0.105140            2.86101
    161       0.00000           0.108230            2.94509
    162       0.00000           0.112861            3.07111
[...]
     82       2.00000          -0.355005           -9.66017
     83       2.00000          -0.348490           -9.48291
     84       2.00000          -0.343502           -9.34718
     85       2.00000          -0.342846           -9.32931
     86       2.00000          -0.342431           -9.31802
     87       2.00000          -0.332674           -9.05252
     88       2.00000          -0.329747           -8.97286
     89       2.00000          -0.329027           -8.95327
     90       2.00000          -0.326350           -8.88043
     91       2.00000          -0.317417           -8.63735
     92       2.00000          -0.309556           -8.42344
     93       2.00000          -0.308959           -8.40722
     94       2.00000          -0.304624           -8.28923
     95       2.00000          -0.303308           -8.25343
     96       2.00000          -0.297976           -8.10833
     97       2.00000          -0.294938           -8.02566
     98       2.00000          -0.289117           -7.86727
     99       2.00000          -0.287208           -7.81534
    100       2.00000          -0.285223           -7.76130
    101       2.00000          -0.283149           -7.70486
    102       2.00000          -0.281943           -7.67207
    103       2.00000          -0.276291           -7.51827
    104       2.00000          -0.267353           -7.27504
    105       2.00000          -0.263288           -7.16443
    106       2.00000          -0.235690           -6.41345
    107       2.00000          -0.228202           -6.20969
    108       2.00000          -0.226566           -6.16517
    109       2.00000          -0.222739           -6.06105
    110       2.00000          -0.206435           -5.61738
    111       2.00000          -0.164805           -4.48457
    112       0.00000          -0.106826           -2.90689
    113       0.00000          -0.062884           -1.71117
    114       0.00000          -0.049505           -1.34709
    115       0.00000          -0.045089           -1.22694
    116       0.00000          -0.043772           -1.19109
    117       0.00000          -0.017653           -0.48037
    118       0.00000          -0.011160           -0.30368
    119       0.00000          -0.008393           -0.22838
    120       0.00000          -0.004849           -0.13196
    121       0.00000           0.001030            0.02803
    122       0.00000           0.003856            0.10493
    123       0.00000           0.006974            0.18976
    124       0.00000           0.010063            0.27383
    125       0.00000           0.012315            0.33511
    126       0.00000           0.017875            0.48639
    127       0.00000           0.019916            0.54195
    128       0.00000           0.024360            0.66286
    129       0.00000           0.033641            0.91543
    130       0.00000           0.035572            0.96798
    131       0.00000           0.035954            0.97834
    132       0.00000           0.044634            1.21456
    133       0.00000           0.050357            1.37029
    134       0.00000           0.052497            1.42852
    135       0.00000           0.052754            1.43551
    136       0.00000           0.054573            1.48500
    137       0.00000           0.056214            1.52965
    138       0.00000           0.057301            1.55925
    139       0.00000           0.061216            1.66577
    140       0.00000           0.062956            1.71311
    141       0.00000           0.066763            1.81671
    142       0.00000           0.066777            1.81709
    143       0.00000           0.070614            1.92151
    144       0.00000           0.075650            2.05853
    145       0.00000           0.079245            2.15638
    146       0.00000           0.083220            2.26453
    147       0.00000           0.093615            2.54739
    148       0.00000           0.098829            2.68928
    149       0.00000           0.102418            2.78694
    150       0.00000           0.105370            2.86728
    151       0.00000           0.109628            2.98314
    152       0.00000           0.116021            3.15709
    153       0.00000           0.117499            3.19731
    154       0.00000           0.119193            3.24341
    155       0.00000           0.121100            3.29530
    156       0.00000           0.122694            3.33868
    157       0.00000           0.131687            3.58339
    158       0.00000           0.132162            3.59632
    159       0.00000           0.134313            3.65485
    160       0.00000           0.137505            3.74170
    161       0.00000           0.140006            3.80975
    162       0.00000           0.142763            3.88479
    163       0.00000           0.144144            3.92235
    164       0.00000           0.152859            4.15951
    165       0.00000           0.154995            4.21762
    166       0.00000           0.156560            4.26022
    167       0.00000           0.160670            4.37206
    168       0.00000           0.161397            4.39184
    169       0.00000           0.162708            4.42751
    170       0.00000           0.165854            4.51312
    171       0.00000           0.169463            4.61132
    172       0.00000           0.171371            4.66325
    173       0.00000           0.172448            4.69255
    174       0.00000           0.174435            4.74661
    175       0.00000           0.176059            4.79081
    176       0.00000           0.178426            4.85521
    177       0.00000           0.180224            4.90414
    178       0.00000           0.183281            4.98733
    179       0.00000           0.184662            5.02490
    180       0.00000           0.187958            5.11459
    181       0.00000           0.189589            5.15897
    182       0.00000           0.195577            5.32191
    183       0.00000           0.196505            5.34717
    184       0.00000           0.199246            5.42175
    185       0.00000           0.200106            5.44516
    186       0.00000           0.202356            5.50638
    187       0.00000           0.205627            5.59541
    188       0.00000           0.206962            5.63171
    189       0.00000           0.209635            5.70445
    190       0.00000           0.211941            5.76721
    191       0.00000           0.215592            5.86655
    192       0.00000           0.216554            5.89273
    193       0.00000           0.218781            5.95334
    194       0.00000           0.219799            5.98102
    195       0.00000           0.225697            6.14154
    196       0.00000           0.230028            6.25939
    197       0.00000           0.231926            6.31103
    198       0.00000           0.234205            6.37305
    199       0.00000           0.235047            6.39594
    200       0.00000           0.236155            6.42610
    201       0.00000           0.238672            6.49460
    202       0.00000           0.239331            6.51253
    203       0.00000           0.240086            6.53306
    204       0.00000           0.241670            6.57618
    205       0.00000           0.246019            6.69452
    206       0.00000           0.248467            6.76114
    207       0.00000           0.251419            6.84145
    208       0.00000           0.254117            6.91487
    209       0.00000           0.256463            6.97871
    210       0.00000           0.257803            7.01518
    211       0.00000           0.260641            7.09239
    212       0.00000           0.262436            7.14124
    213       0.00000           0.266385            7.24871
    214       0.00000           0.269078            7.32198
    215       0.00000           0.273855            7.45198
    216       0.00000           0.274596            7.47215
    217       0.00000           0.276196            7.51567
    218       0.00000           0.277869            7.56120
    219       0.00000           0.279930            7.61727
    220       0.00000           0.281479            7.65943
    221       0.00000           0.284126            7.73147
    222       0.00000           0.285475            7.76816
    223       0.00000           0.287193            7.81492
    224       0.00000           0.291675            7.93687
    225       0.00000           0.294492            8.01352
    226       0.00000           0.295852            8.05055
    227       0.00000           0.299949            8.16204
    228       0.00000           0.303179            8.24992
    229       0.00000           0.305538            8.31413
    230       0.00000           0.315666            8.58972
    231       0.00000           0.317395            8.63677
    232       0.00000           0.318814            8.67538
    233       0.00000           0.320076            8.70972
    234       0.00000           0.324608            8.83303
    235       0.00000           0.325027            8.84442
    236       0.00000           0.329073            8.95452
    237       0.00000           0.332235            9.04056
    238       0.00000           0.335800            9.13758
    239       0.00000           0.339718            9.24420
    240       0.00000           0.344224            9.36681
    241       0.00000           0.344890            9.38493
    242       0.00000           0.349814            9.51891
    243       0.00000           0.354541            9.64756
    244       0.00000           0.358381            9.75204
    245       0.00000           0.365374            9.94233
    246       0.00000           0.369264           10.04819
    247       0.00000           0.371703           10.11454
    248       0.00000           0.375902           10.22882
    249       0.00000           0.376438           10.24341
    250       0.00000           0.379281           10.32075
    251       0.00000           0.381851           10.39069
    252       0.00000           0.385746           10.49669

  Highest occupied state (VBM) at     -4.48456549 eV
  | Occupation number:      2.00000000

  Lowest unoccupied state (CBM) at    -2.90688989 eV
  | Occupation number:      0.00000000

  Overall HOMO-LUMO gap:      1.57767559 eV.

  Total energy components:
  | Sum of eigenvalues            :        -703.63652900 Ha      -19146.92413880 eV
  | XC energy correction          :        -183.70031142 Ha       -4998.73980669 eV
  | XC potential correction       :         236.01186239 Ha        6422.20953408 eV
  | Free-atom electrostatic energy:        -537.60952819 Ha      -14629.09958234 eV
  | Hartree energy correction     :         -47.99311163 Ha       -1305.95901384 eV
  | Entropy correction            :           0.00000000 Ha           0.00000000 eV
  | ---------------------------
  | Total energy                  :       -1236.92761784 Ha      -33658.51300759 eV
  | Total energy, T -> 0          :       -1236.92761784 Ha      -33658.51300759 eV  <-- do not rely on this value for anything but (periodic) metals
  | Electronic free energy        :       -1236.92761784 Ha      -33658.51300759 eV

  Derived energy quantities:
  | Kinetic energy                :        1233.38955680 Ha       33562.23746842 eV
  | Electrostatic energy          :       -2286.61686322 Ha      -62222.01066932 eV
  | Energy correction for multipole
  | error in Hartree potential    :          -0.15024859 Ha          -4.08847221 eV
  | Sum of eigenvalues per atom                           :        -308.82135708 eV
  | Total energy (T->0) per atom                          :        -542.87924206 eV  <-- do not rely on this value for anything but (periodic) metals
  | Electronic free energy per atom                       :        -542.87924206 eV
  End evaluation of scaled ZORA corrections.
  | Time for scaled ZORA corrections           :        7.652 s           7.663 s
------------------------------------------------------------

  Energy and forces in a compact form:
  | Total energy uncorrected      :         -0.336585130075879E+05 eV
  | Total energy corrected        :         -0.336585130075879E+05 eV  <-- do not rely on this value for anything but (periodic) metals
  | Electronic free energy        :         -0.336585130075879E+05 eV

  ------------------------------------ 
  Start decomposition of the XC Energy 
  ------------------------------------ 
  X and C from original XC functional choice 
  Hartree-Fock Energy :          0.000000000 Ha              0.000000000 eV
  X Energy            :       -176.295550601 Ha          -4797.246013049 eV
  C Energy            :         -7.404760814 Ha           -201.493793639 eV
  Total XC Energy     :       -183.700311415 Ha          -4998.739806689 eV
  ------------------------------------ 
  LDA X and C from self-consistent density 
  X Energy LDA        :       -159.696038887 Ha          -4345.550317285 eV
  C Energy LDA        :        -14.186248980 Ha           -386.027475603 eV
  ------------------------------------ 
  End decomposition of the XC Energy 
  ------------------------------------ 

------------------------------------------------------------

------------------------------------------------------------------------------
  Final output of selected total energy values:

  The following output summarizes some interesting total energy values
  at the end of a run (AFTER all relaxation, molecular dynamics, etc.).

  | Total energy of the DFT / Hartree-Fock s.c.f. calculation      :         -33658.513007588 eV
  | Final zero-broadening corrected energy (caution - metals only) :         -33658.513007588 eV
  | For reference only, the value of 1 Hartree used in FHI-aims is :             27.211384500 eV

  Before relying on these values, please be sure to understand exactly which
  total energy value is referred to by a given number. Different objects may
  all carry the same name 'total energy'. Definitions:

  Total energy of the DFT / Hartree-Fock s.c.f. calculation:
  | Note that this energy does not include ANY quantities calculated after the
  | s.c.f. cycle, in particular not ANY RPA, MP2, etc. many-body perturbation terms.
  | Scalar relativistic effects have been included in the 'scaled ZORA' approximation.

  Final zero-broadening corrected energy:
  | For metallic systems only, a broadening of the occupation numbers at the Fermi
  | level can be extrapolated back to zero broadening by an electron-gas inspired
  | formula. For all systems that are not real metals, this value can be
  | meaningless and should be avoided.

------------------------------------------------------------------------------
  Methods described in the following list of references were used in this FHI-aims run.
  If you publish the results, please make sure to cite these reference if they apply.
  FHI-aims is an academic code, and for our developers (often, Ph.D. students
  and postdocs), scientific credit in the community is essential.
  Thank you for helping us!

  For any use of FHI-aims, please cite:

    Volker Blum, Ralf Gehrke, Felix Hanke, Paula Havu, Ville Havu,
    Xinguo Ren, Karsten Reuter, and Matthias Scheffler
    'Ab initio molecular simulations with numeric atom-centered orbitals'
    Computer Physics Communications 180, 2175-2196 (2009)
    http://dx.doi.org/10.1016/j.cpc.2009.06.022


  The scalable eigensolver library ELPA was used in your run.
  ELPA is essential especially for large systems on hundreds or thousands of CPUs.
  For ELPA, please cite:

    Andreas Marek, Volker Blum, Rainer Johanni, Ville Havu, Bruno Lang,
    Thomas Auckenthaler, Alexander Heinecke, Hans-Joachim Bungartz, and Hermann Lederer,
    'The ELPA Library - Scalable Parallel Eigenvalue Solutions
    for Electronic Structure Theory and Computational Science'
    The Journal of Physics: Condensed Matter 26, 213201 (2014).
    http://dx.doi.org/10.1088/0953-8984/26/21/213201


  The ELSI infrastructure was used in your run to solve the Kohn-Sham electronic structure.
  Please check out http://elsi-interchange.org to learn more.
  If scalability is important for your project, please acknowledge ELSI by citing:

    V. W-z. Yu, F. Corsetti, A. Garcia, W. P. Huhn, M. Jacquelin, W. Jia,
    B. Lange, L. Lin, J. Lu, W. Mi, A. Seifitokaldani, A. Vazquez-Mayagoitia,
    C. Yang, H. Yang, and V. Blum
    'ELSI: A unified software interface for Kohn-Sham electronic structure solvers'
    Computer Physics Communications 222, 267-285 (2018).
    http://dx.doi.org/10.1016/j.cpc.2017.09.007


  For the real-space grid partitioning and parallelization used in this calculation, please cite:

    Ville Havu, Volker Blum, Paula Havu, and Matthias Scheffler,
    'Efficient O(N) integration for all-electron electronic structure calculation'
    'using numerically tabulated basis functions'
    Journal of Computational Physics 228, 8367-8379 (2009).
    http://dx.doi.org/10.1016/j.jcp.2009.08.008

  Of course, there are many other important community references, e.g., those cited in the
  above references. Our list is limited to references that describe implementations in the
  FHI-aims code. The reason is purely practical (length of this list) - please credit others as well.

------------------------------------------------------------
          Leaving FHI-aims.
          Date     :  20210620, Time     :  172648.046

          Computational steps:
          | Number of self-consistency cycles          :           17
          | Number of SCF (re)initializations          :            1

          Detailed time accounting                     :  max(cpu_time)    wall_clock(cpu1)
          | Total time                                 :      137.932 s         138.152 s
          | Preparation time                           :        0.191 s           0.187 s
          | Boundary condition initalization           :        0.001 s           0.003 s
          | Grid partitioning                          :        0.891 s           0.896 s
          | Preloading free-atom quantities on grid    :        0.014 s           0.016 s
          | Free-atom superposition energy             :        0.101 s           0.102 s
          | Total time for integrations                :       80.159 s          80.173 s
          | Total time for solution of K.-S. equations :        3.758 s           3.781 s
          | Total time for density update              :       29.801 s          29.755 s
          | Total time for mixing                      :        0.170 s           0.187 s
          | Total time for Hartree multipole update    :        0.212 s           0.228 s
          | Total time for Hartree multipole sum       :       13.403 s          13.404 s
          | Total time for total energy evaluation     :        0.008 s           0.031 s
          | Total time for scaled ZORA corrections     :        7.652 s           7.663 s

          Partial memory accounting:
          | Residual value for overall tracked memory usage across tasks :     0.000000 MB (should be 0.000000 MB)
          | Peak values for overall tracked memory usage (after allocating zora_vector2):
          |   Minimum:       31.782 MB (on task 33)
          |   Maximum:       41.947 MB (on task 50)
          |   Average:       36.325 MB
          | Largest tracked array allocation (hamiltonian_shell):
          |   Minimum:        9.418 MB (on task  1)
          |   Maximum:        9.418 MB (on task  1)
          |   Average:        9.418 MB
          Note:  These values currently only include a subset of arrays which are explicitly tracked.
          The "true" memory usage will be greater.

          Have a nice day.
------------------------------------------------------------
