  MPI-parallelism will be employed.
------------------------------------------------------------
          Invoking FHI-aims ...
          Version 180607
          Git rev. (modified): 6724847 Fix JSON memory corruption in scf_solver
          Compiled on 2018/06/27 at 16:00:31 on host coe.psc.edu.

          When using FHI-aims, please cite the following reference:

          Volker Blum, Ralf Gehrke, Felix Hanke, Paula Havu,
          Ville Havu, Xinguo Ren, Karsten Reuter, and Matthias Scheffler,
          'Ab Initio Molecular Simulations with Numeric Atom-Centered Orbitals',
          Computer Physics Communications 180, 2175-2196 (2009)

          For any questions about FHI-aims, please visit the aimsclub website
          with its forums and wiki. Contributions to both the forums and the
          wiki are warmly encouraged - they are for you, and everyone is welcome there.

------------------------------------------------------------



  Date     :  20210620, Time     :  172958.859
  Time zero on CPU 1             :   0.340405000000000E+00  s.
  Internal wall clock time zero  :           393442198.859  s.

  FHI-aims created a unique identifier for this run for later identification
  aims_uuid : 64AD4F5F-FCFF-4AFB-A0ED-7575707A88C6

  Using       56 parallel tasks.
  Task        0 on host d001 reporting.
  Task        1 on host d001 reporting.
  Task        2 on host d001 reporting.
  Task        3 on host d001 reporting.
  Task        4 on host d001 reporting.
  Task        5 on host d001 reporting.
  Task        6 on host d001 reporting.
  Task        7 on host d001 reporting.
  Task        8 on host d001 reporting.
  Task        9 on host d001 reporting.
  Task       10 on host d001 reporting.
  Task       11 on host d001 reporting.
  Task       12 on host d001 reporting.
  Task       13 on host d001 reporting.
  Task       14 on host d001 reporting.
  Task       15 on host d001 reporting.
  Task       16 on host d001 reporting.
  Task       17 on host d001 reporting.
  Task       18 on host d001 reporting.
  Task       19 on host d001 reporting.
  Task       20 on host d001 reporting.
  Task       21 on host d001 reporting.
  Task       22 on host d001 reporting.
  Task       23 on host d001 reporting.
  Task       24 on host d001 reporting.
  Task       25 on host d001 reporting.
  Task       26 on host d001 reporting.
  Task       27 on host d001 reporting.
  Task       28 on host d001 reporting.
  Task       29 on host d001 reporting.
  Task       30 on host d001 reporting.
  Task       31 on host d001 reporting.
  Task       32 on host d001 reporting.
  Task       33 on host d001 reporting.
  Task       34 on host d001 reporting.
  Task       35 on host d001 reporting.
  Task       36 on host d001 reporting.
  Task       37 on host d001 reporting.
  Task       38 on host d001 reporting.
  Task       39 on host d001 reporting.
  Task       40 on host d001 reporting.
  Task       41 on host d001 reporting.
  Task       42 on host d001 reporting.
  Task       43 on host d001 reporting.
  Task       44 on host d001 reporting.
  Task       45 on host d001 reporting.
  Task       46 on host d001 reporting.
  Task       47 on host d001 reporting.
  Task       48 on host d001 reporting.
  Task       49 on host d001 reporting.
  Task       50 on host d001 reporting.
  Task       51 on host d001 reporting.
  Task       52 on host d001 reporting.
  Task       53 on host d001 reporting.
  Task       54 on host d001 reporting.
  Task       55 on host d001 reporting.

  Performing system and environment tests:
  *** Environment variable OMP_NUM_THREADS is not set
  *** For performance reasons you might want to set it to 1
  | Stacksize not measured: no C compiler
  | Checking for scalapack...
  | Testing pdtran()...
  | All pdtran() tests passed.

  Obtaining array dimensions for all initial allocations:
  
  -----------------------------------------------------------------------
  Parsing control.in (first pass over file, find array dimensions only).
  The contents of control.in will be repeated verbatim below
  unless switched off by setting 'verbatim_writeout .false.' .
  in the first line of control.in .
  -----------------------------------------------------------------------
  
  #===============================================================================
  # FHI-aims file: ./Runs/es/control.in
  # Created using the Atomic Simulation Environment (ASE)
  # Mon Jan 13 16:04:38 2020
  #===============================================================================
  xc                                 pbe
  relativistic                       zora scalar 1e-12
  occupation_type                    gaussian 0.0001
  load_balancing                     .true.
  KS_method                          scalapack_fast
  mixer                              pulay
  n_max_pulay                        5
  charge_mix_param                   0.4
  sc_accuracy_etot                   1e-6
  sc_accuracy_eev                    1e-4
  sc_accuracy_rho                    1e-6
  sc_iter_limit                      100
  prodbas_threshold                  1e-4
  basis_threshold                    1e-5
  override_illconditioning           .true.
  use_logsbt                         .true.
  spin                               none
  charge                             0
  #===============================================================================
  
  ################################################################################
  #
  #  FHI-aims code project
  # Volker Blum, Fritz Haber Institute Berlin, 2009
  #
  #  Suggested "tight" defaults for H atom (to be pasted into control.in file)
  #
  ################################################################################
    species        H
  #     global species definitions
      nucleus             1
      mass                1.00794
  #
      l_hartree           6
  #
      cut_pot             4.0  2.0  1.0
      basis_dep_cutoff    1e-4
  #
      radial_base         24 7.0
      radial_multiplier   2
      angular_grids       specified
        division   0.1930   50
        division   0.3175  110
        division   0.4293  194
        division   0.5066  302
        division   0.5626  434
  #      division   0.5922  590
  #      division   0.6227  974
  #      division   0.6868 1202
  #      outer_grid  770
        outer_grid  434
  ################################################################################
  #
  #  Definition of "minimal" basis
  #
  ################################################################################
  #     valence basis states
      valence      1  s   1.
  #     ion occupancy
      ion_occ      1  s   0.5
  ################################################################################
  #
  #  Suggested additional basis functions. For production calculations,
  #  uncomment them one after another (the most important basis functions are
  #  listed first).
  #
  #  Basis constructed for dimers: 0.5 A, 0.7 A, 1.0 A, 1.5 A, 2.5 A
  #
  ################################################################################
  #  "First tier" - improvements: -1014.90 meV to -62.69 meV
       hydro 2 s 2.1
       hydro 2 p 3.5
  #  "Second tier" - improvements: -12.89 meV to -1.83 meV
       hydro 1 s 0.85
       hydro 2 p 3.7
       hydro 2 s 1.2
       hydro 3 d 7
  #  "Third tier" - improvements: -0.25 meV to -0.12 meV
  #     hydro 4 f 11.2
  #     hydro 3 p 4.8
  #     hydro 4 d 9
  #     hydro 3 s 3.2
  ################################################################################
  #
  # For methods that use the localized form of the "resolution of identity" for
  # the two-electron Coulomb operator (RI_method LVL), particularly Hartree-Fock and
  # hybrid density functional calculations, the highest accuracy can be obtained by
  # uncommenting the line beginning with "for_aux"  below, thus adding an extra g radial
  # function to the construction of the product basis set for the expansion.
  # See Ref. New J. Phys. 17, 093020 (2015) for more information, particularly Figs. 1 and 6.
  #
  ################################################################################
  #
  # for_aux hydro 5 g 6.0
  ################################################################################
  #
  #  FHI-aims code project
  # Volker Blum, Fritz Haber Institute Berlin, 2009
  #
  #  Suggested "tight" defaults for C atom (to be pasted into control.in file)
  #
  ################################################################################
    species        C
  #     global species definitions
      nucleus             6
      mass                12.0107
  #
      l_hartree           6
  #
      cut_pot             4.0  2.0  1.0
      basis_dep_cutoff    1e-4
  #
      radial_base         34 7.0
      radial_multiplier   2
      angular_grids specified
        division   0.2187   50
        division   0.4416  110
        division   0.6335  194
        division   0.7727  302
        division   0.8772  434
  #      division   0.9334  590
  #      division   0.9924  770
  #      division   1.0230  974
  #      division   1.5020 1202
  #     outer_grid  974
        outer_grid  434
  ################################################################################
  #
  #  Definition of "minimal" basis
  #
  ################################################################################
  #     valence basis states
      valence      2  s   2.
      valence      2  p   2.
  #     ion occupancy
      ion_occ      2  s   1.
      ion_occ      2  p   1.
  ################################################################################
  #
  #  Suggested additional basis functions. For production calculations,
  #  uncomment them one after another (the most important basis functions are
  #  listed first).
  #
  #  Constructed for dimers: 1.0 A, 1.25 A, 1.5 A, 2.0 A, 3.0 A
  #
  ################################################################################
  #  "First tier" - improvements: -1214.57 meV to -155.61 meV
       hydro 2 p 1.7
       hydro 3 d 6
       hydro 2 s 4.9
  #  "Second tier" - improvements: -67.75 meV to -5.23 meV
       hydro 4 f 9.8
       hydro 3 p 5.2
       hydro 3 s 4.3
       hydro 5 g 14.4
       hydro 3 d 6.2
  #  "Third tier" - improvements: -2.43 meV to -0.60 meV
  #     hydro 2 p 5.6
  #     hydro 2 s 1.4
  #     hydro 3 d 4.9
  #     hydro 4 f 11.2
  #  "Fourth tier" - improvements: -0.39 meV to -0.18 meV
  #     hydro 2 p 2.1
  #     hydro 5 g 16.4
  #     hydro 4 d 13.2
  #     hydro 3 s 13.6
  #     hydro 4 f 17.6
  #  Further basis functions - improvements: -0.08 meV and below
  #     hydro 3 s 2
  #     hydro 3 p 6
  #     hydro 4 d 20
  ################################################################################
  #
  # For methods that use the localized form of the "resolution of identity" for
  # the two-electron Coulomb operator (RI_method LVL), particularly Hartree-Fock and
  # hybrid density functional calculations, the highest accuracy can be obtained by
  # uncommenting the line beginning with "for_aux"  below, thus adding an extra g radial
  # function to the construction of the product basis set for the expansion.
  # See Ref. New J. Phys. 17, 093020 (2015) for more information, particularly Figs. 1 and 6.
  #
  ################################################################################
  #
  # for_aux hydro 5 g 6.0
  
  -----------------------------------------------------------------------
  Completed first pass over input file control.in .
  -----------------------------------------------------------------------
  
  
  -----------------------------------------------------------------------
  Parsing geometry.in (first pass over file, find array dimensions only).
  The contents of geometry.in will be repeated verbatim below
  unless switched off by setting 'verbatim_writeout .false.' .
  in the first line of geometry.in .
  -----------------------------------------------------------------------
  
  #=======================================================
  # FHI-aims file: geometry.in
  # Created using the Atomic Simulation Environment (ASE)
  # Sun Jun 20 15:47:01 2021
  #=======================================================
  atom 10.6003050000000005 29.3639340000000004 35.9435900000000004 C
  atom 9.5436999999999994 28.8689380000000000 35.1605160000000012 C
  atom 11.4075760000000006 28.4738709999999990 36.7395830000000032 C
  atom 10.8503539999999994 30.7722319999999989 35.9728050000000010 C
  atom 9.3626199999999997 27.4362400000000015 35.0452719999999971 C
  atom 8.7356850000000001 29.7810780000000008 34.4280910000000020 C
  atom 11.1733170000000008 27.0957849999999993 36.7106619999999992 C
  atom 12.4521049999999995 29.0234789999999983 37.5708100000000016 C
  atom 10.0542339999999992 31.6564839999999990 35.2010349999999974 C
  atom 11.8897460000000006 31.3055720000000015 36.7871489999999994 C
  atom 8.3754190000000008 26.8726880000000001 34.1990699999999990 C
  atom 10.2538289999999996 26.5647680000000008 35.7207349999999977 C
  atom 7.9029429999999996 29.4145959999999995 33.8338120000000018 H
  atom 8.9925499999999996 31.1196580000000012 34.4401289999999989 C
  atom 11.8501510000000003 26.2533630000000002 37.6845860000000030 C
  atom 13.2691610000000004 28.1705989999999993 38.3458090000000027 C
  atom 12.6935620000000000 30.4282910000000015 37.5784439999999975 C
  atom 10.3436930000000000 33.0508390000000034 35.2251120000000029 C
  atom 12.1455629999999992 32.6941160000000011 36.7983059999999966 C
  atom 8.3438999999999997 25.5259749999999990 33.9302649999999986 C
  atom 7.6377009999999999 27.5146720000000009 33.7244400000000013 H
  atom 10.2641960000000001 25.2006249999999987 35.3272899999999979 C
  atom 8.3618430000000004 31.7988250000000008 33.8672839999999979 H
  atom 11.3970249999999993 24.9519650000000013 38.0171059999999983 C
  atom 12.9528739999999996 26.7657880000000006 38.4208280000000002 C
  atom 14.3307400000000005 28.7434459999999987 39.0998149999999995 C
  atom 13.7481510000000000 30.9674410000000009 38.3534429999999986 C
  atom 9.7290449999999993 33.7086249999999978 34.6101329999999976 H
  atom 11.3516940000000002 33.5469960000000000 35.9885129999999975 C
  atom 13.2030899999999995 33.2053790000000006 37.5989969999999971 C
  atom 7.5773229999999998 25.1271890000000013 33.2683079999999975 H
  atom 9.3308269999999993 24.6963340000000002 34.4602420000000009 C
  atom 11.0530419999999996 24.5520180000000003 35.6934290000000018 H
  atom 10.4582169999999994 24.6018660000000011 37.6022269999999992 H
  atom 12.0832020000000000 24.1409160000000007 38.8835669999999993 C
  atom 13.6642259999999993 25.8908309999999986 39.2740760000000009 C
  atom 14.9861869999999993 28.1050649999999997 39.6854319999999987 H
  atom 14.5560240000000007 30.0866739999999986 39.1064209999999974 C
  atom 13.9771680000000007 32.3652810000000031 38.3418449999999993 C
  atom 11.5649829999999998 34.6158849999999987 36.0015789999999996 H
  atom 13.3910330000000002 34.2777540000000016 37.5860780000000005 H
  atom 9.3678310000000007 23.6431320000000014 34.1854170000000011 H
  atom 11.7076360000000008 23.1427909999999990 39.1020169999999965 H
  atom 13.2620100000000001 24.5964050000000007 39.4778459999999995 C
  atom 14.5386330000000008 26.2549889999999984 39.8053740000000005 H
  atom 15.3812339999999992 30.5011459999999985 39.6835239999999985 H
  atom 14.8074700000000004 32.7494259999999997 38.9358310000000003 H
  atom 13.8386440000000004 23.9493089999999995 40.1371600000000015 H
  
  -----------------------------------------------------------------------
  Completed first pass over input file geometry.in .
  -----------------------------------------------------------------------
  

  Basic array size parameters:
  | Number of species                 :        2
  | Number of atoms                   :       48
  | Max. basis fn. angular momentum   :        4
  | Max. atomic/ionic basis occupied n:        2
  | Max. number of basis fn. types    :        2
  | Max. radial fns per species/type  :        8
  | Max. logarithmic grid size        :     1277
  | Max. radial integration grid size :       69
  | Max. angular integration grid size:      434
  | Max. angular grid division number :        8
  | Radial grid for Hartree potential :     1277
  | Number of spin channels           :        1

------------------------------------------------------------
          Reading file control.in.
------------------------------------------------------------
  XC: Using PBE gradient-corrected functionals.
  Scalar relativistic treatment of kinetic energy: ZORA.
  Threshold value for ZORA:   0.100000E-11
  Occupation type: Gaussian broadening, width =   0.100000E-03 eV.
  Since 'load_balancing .true.' is present in control.in, automatically turning on 'use_local_index .true.'.
  Using load balancing for integrations.
  Kohn-Sham electronic structure solved by the ELSI library.
  Using pulay charge density mixing.
  Pulay mixing - number of memorized iterations:    5
  Charge density mixing - mixing parameter:     0.4000
  Convergence accuracy of total energy:  0.1000E-05
  Convergence accuracy of sum of eigenvalues:  0.1000E-03
  Convergence accuracy of self-consistent charge density:  0.1000E-05
  Maximum number of s.-c. iterations  :   100
  * Ignoring prodbas_threshold
  Threshold for basis singularities:  0.1000E-04
  override_illconditioning: Explicitly overriding any built-in checks for an ill-conditioned overlap matrix.
  *** WARNING: If you use this flag, you should really know what you are doing.
  *** DO NOT keep this flag set by default in all your control.in files.
  Using 1D integrations for auxiliary 2-center integrals.
  Spin treatment: No spin polarisation.
  Charge =   0.000000E+00: Neutral system requested explicitly.
 
  Reading configuration options for species H                   .
  | Found nuclear charge :   1.0000
  | Found atomic mass :    1.00794000000000      amu
  | Found l_max for Hartree potential  :   6
  | Found cutoff potl. onset [A], width [A], scale factor :    4.00000    2.00000    1.00000
  | Threshold for basis-dependent cutoff potential is   0.100000E-03
  | Found data for basic radial integration grid :    24 points, outermost radius =    7.000 A
  | Found multiplier for basic radial grid :   2
  | Found angular grid specification: user-specified.
  | Specified grid contains     6 separate shells.
  | Check grid settings after all constraints further below.
  | Found free-atom valence shell :  1 s   1.000
  | No ionic wave fns used. Skipping ion_occ.
  | Found hydrogenic basis function :  2 s   2.100
  | Found hydrogenic basis function :  2 p   3.500
  | Found hydrogenic basis function :  1 s   0.850
  | Found hydrogenic basis function :  2 p   3.700
  | Found hydrogenic basis function :  2 s   1.200
  | Found hydrogenic basis function :  3 d   7.000
  Species H                   : Missing cutoff potential type.
  Defaulting to exp(1/x)/(1-x)^2 type cutoff potential.
  Species H : No 'logarithmic' tag. Using default grid for free atom:
  | Default logarithmic grid data [bohr] : 0.1000E-03 0.1000E+03 0.1012E+01
  Species H : On-site basis accuracy parameter (for Gram-Schmidt orthonormalisation) not specified.
  Using default value basis_acc =  0.1000000E-03.
  Species H                   : Using default innermost maximum threshold i_radial=  2 for radial functions.
  Species H                   : Default cutoff onset for free atom density etc. : 0.40000000E+01 AA.
  Species H                   : Basic radial grid will be enhanced according to radial_multiplier =   2, to contain    49 grid points.
 
  Reading configuration options for species C                   .
  | Found nuclear charge :   6.0000
  | Found atomic mass :    12.0107000000000      amu
  | Found l_max for Hartree potential  :   6
  | Found cutoff potl. onset [A], width [A], scale factor :    4.00000    2.00000    1.00000
  | Threshold for basis-dependent cutoff potential is   0.100000E-03
  | Found data for basic radial integration grid :    34 points, outermost radius =    7.000 A
  | Found multiplier for basic radial grid :   2
  | Found angular grid specification: user-specified.
  | Specified grid contains     6 separate shells.
  | Check grid settings after all constraints further below.
  | Found free-atom valence shell :  2 s   2.000
  | Found free-atom valence shell :  2 p   2.000
  | No ionic wave fns used. Skipping ion_occ.
  | No ionic wave fns used. Skipping ion_occ.
  | Found hydrogenic basis function :  2 p   1.700
  | Found hydrogenic basis function :  3 d   6.000
  | Found hydrogenic basis function :  2 s   4.900
  | Found hydrogenic basis function :  4 f   9.800
  | Found hydrogenic basis function :  3 p   5.200
  | Found hydrogenic basis function :  3 s   4.300
  | Found hydrogenic basis function :  5 g  14.400
  | Found hydrogenic basis function :  3 d   6.200
  Species C                   : Missing cutoff potential type.
  Defaulting to exp(1/x)/(1-x)^2 type cutoff potential.
  Species C : No 'logarithmic' tag. Using default grid for free atom:
  | Default logarithmic grid data [bohr] : 0.1000E-03 0.1000E+03 0.1012E+01
  Species C : On-site basis accuracy parameter (for Gram-Schmidt orthonormalisation) not specified.
  Using default value basis_acc =  0.1000000E-03.
  Species C                   : Using default innermost maximum threshold i_radial=  2 for radial functions.
  Species C                   : Default cutoff onset for free atom density etc. : 0.40000000E+01 AA.
  Species C                   : Basic radial grid will be enhanced according to radial_multiplier =   2, to contain    69 grid points.
 
  Finished reading input file 'control.in'. Consistency checks are next.
 
  MPI_IN_PLACE appears to work with this MPI implementation.
  | Keeping use_mpi_in_place .true. (see manual).
  Target number of points in a grid batch is not set. Defaulting to  100
  Method for grid partitioning is not set. Defaulting to parallel hash+maxmin partitioning.
  Batch size limit is not set. Defaulting to    200
  By default, will store active basis functions for each batch.
  If in need of memory, prune_basis_once .false. can be used to disable this option.
  communication_type for Hartree potential was not specified.
  Defaulting to calc_hartree .
  Pulay mixer: Number of initial linear mixing iterations not set.
  Defaulting to    0 iterations.
  Work space size for distributed Hartree potential not set.
  Defaulting to   0.200000E+03 MB.
  Algorithm-dependent basis array size parameters:
  | n_max_pulay                         :        5
  Presetting      1001 iterations before the initial mixing cycle
  is restarted anyway using the sc_init_iter criterion / keyword.
  Presetting a factor      1.000 between actual scf density residual
  and density convergence criterion sc_accuracy_rho below which sc_init_iter
  takes no effect.
  Calculation of forces was not defined in control.in. No forces will be calculated.
  Geometry relaxation not requested: no relaxation will be performed.
  No accuracy limit for integral partition fn. given. Defaulting to  0.1000E-14.
  No threshold value for u(r) in integrations given. Defaulting to  0.1000E-05.
  No accuracy for occupation numbers given. Defaulting to  0.1000E-12.
  No threshold value for occupation numbers given. Defaulting to  0.0000E+00.
  No accuracy for fermi level given. Defaulting to  0.1000E-19.
  Maximum # of iterations to find E_F not set. Defaulting to  200.
  Will not use alltoall communication since running on < 1024 CPUs.
  partition_type (choice of integration weights) for integrals was not specified.
  | Using a version of the partition function of Stratmann and coworkers ('stratmann_sparse').
  | At each grid point, the set of atoms used to build the partition table is smoothly restricted to
  | only those atoms whose free-atom density would be non-zero at that grid point.
  Partitioning for Hartree potential was not defined. Using partition_type for integrals.
  | Adjusted default value of keyword multip_moments_threshold to:       0.10000000E-11
  | This value may affect high angular momentum components of the Hartree potential in periodic systems.
  No q(lm)/r^(l+1) cutoff set for long-range Hartree potential.
  | Using default value of  0.100000E-09 .
  | Verify using the multipole_threshold keyword.
  Defaulting to new monopole extrapolation.
  Density update method: automatic selection selected.
 * Warning: use_local_index and/or load_balancing needs packed_matrix_format = index
 * Changing the default setting to packed_matrix_format = index
------------------------------------------------------------


------------------------------------------------------------
          Reading geometry description geometry.in.
------------------------------------------------------------
  Input structure read successfully.
  The structure contains       48 atoms,  and a total of        208.000 electrons.

  Input geometry:
  | No unit cell requested.
  | Atomic structure:
  |       Atom                x [A]            y [A]            z [A]
  |    1: Species C            10.60030500       29.36393400       35.94359000
  |    2: Species C             9.54370000       28.86893800       35.16051600
  |    3: Species C            11.40757600       28.47387100       36.73958300
  |    4: Species C            10.85035400       30.77223200       35.97280500
  |    5: Species C             9.36262000       27.43624000       35.04527200
  |    6: Species C             8.73568500       29.78107800       34.42809100
  |    7: Species C            11.17331700       27.09578500       36.71066200
  |    8: Species C            12.45210500       29.02347900       37.57081000
  |    9: Species C            10.05423400       31.65648400       35.20103500
  |   10: Species C            11.88974600       31.30557200       36.78714900
  |   11: Species C             8.37541900       26.87268800       34.19907000
  |   12: Species C            10.25382900       26.56476800       35.72073500
  |   13: Species H             7.90294300       29.41459600       33.83381200
  |   14: Species C             8.99255000       31.11965800       34.44012900
  |   15: Species C            11.85015100       26.25336300       37.68458600
  |   16: Species C            13.26916100       28.17059900       38.34580900
  |   17: Species C            12.69356200       30.42829100       37.57844400
  |   18: Species C            10.34369300       33.05083900       35.22511200
  |   19: Species C            12.14556300       32.69411600       36.79830600
  |   20: Species C             8.34390000       25.52597500       33.93026500
  |   21: Species H             7.63770100       27.51467200       33.72444000
  |   22: Species C            10.26419600       25.20062500       35.32729000
  |   23: Species H             8.36184300       31.79882500       33.86728400
  |   24: Species C            11.39702500       24.95196500       38.01710600
  |   25: Species C            12.95287400       26.76578800       38.42082800
  |   26: Species C            14.33074000       28.74344600       39.09981500
  |   27: Species C            13.74815100       30.96744100       38.35344300
  |   28: Species H             9.72904500       33.70862500       34.61013300
  |   29: Species C            11.35169400       33.54699600       35.98851300
  |   30: Species C            13.20309000       33.20537900       37.59899700
  |   31: Species H             7.57732300       25.12718900       33.26830800
  |   32: Species C             9.33082700       24.69633400       34.46024200
  |   33: Species H            11.05304200       24.55201800       35.69342900
  |   34: Species H            10.45821700       24.60186600       37.60222700
  |   35: Species C            12.08320200       24.14091600       38.88356700
  |   36: Species C            13.66422600       25.89083100       39.27407600
  |   37: Species H            14.98618700       28.10506500       39.68543200
  |   38: Species C            14.55602400       30.08667400       39.10642100
  |   39: Species C            13.97716800       32.36528100       38.34184500
  |   40: Species H            11.56498300       34.61588500       36.00157900
  |   41: Species H            13.39103300       34.27775400       37.58607800
  |   42: Species H             9.36783100       23.64313200       34.18541700
  |   43: Species H            11.70763600       23.14279100       39.10201700
  |   44: Species C            13.26201000       24.59640500       39.47784600
  |   45: Species H            14.53863300       26.25498900       39.80537400
  |   46: Species H            15.38123400       30.50114600       39.68352400
  |   47: Species H            14.80747000       32.74942600       38.93583100
  |   48: Species H            13.83864400       23.94930900       40.13716000
  |

  | The smallest distance between any two atoms is         1.08446040 AA.
  |
  | The first atom of this pair is atom number                     24 .
  | The second atom of this pair is atom number                    34 .

  Number of empty states per atom not set in control.in - providing a guess from actual geometry.
  | Total number of empty states used during s.c.f. cycle:      120
  If you use a very high smearing, use empty_states (per atom!) in control.in to increase this value.

  Structure-dependent array size parameters: 
  | Maximum number of distinct radial functions  :       18
  | Maximum number of basis functions            :     1488
  | Number of Kohn-Sham states (occupied + empty):      224
------------------------------------------------------------

------------------------------------------------------------
          Preparing all fixed parts of the calculation.
------------------------------------------------------------
  Determining machine precision:
    2.225073858507201E-308
  Setting up grids for atomic and cluster calculations.

  Creating wave function, potential, and density for free atoms.

  Species: H

  List of occupied orbitals and eigenvalues:
    n    l              occ      energy [Ha]    energy [eV]
    1    0           1.0000        -0.238386        -6.4868


  Species: C

  List of occupied orbitals and eigenvalues:
    n    l              occ      energy [Ha]    energy [eV]
    1    0           2.0000       -10.049212      -273.4530
    2    0           2.0000        -0.504761       -13.7352
    2    1           2.0000        -0.193631        -5.2690

  Creating fixed part of basis set: Ionic, confined, hydrogenic.
 
  H                    hydrogenic:
 
  List of hydrogenic basis orbitals: 
    n    l      effective z      eigenvalue [eV]  inner max. [A]     outer max. [A]     outer radius [A]   
    2    0         2.100000       -14.9965           0.193243           1.317208           5.373006
    2    1         3.500000       -41.6672           0.602369           0.602369           4.056063
    1    0         0.850000        -9.8292           0.624871           0.624871           5.373006
    2    1         3.700000       -46.5653           0.573622           0.573622           3.910002
    2    0         1.200000        -4.5995           0.334980           2.228188           5.505995
    3    2         7.000000       -74.0753           0.680699           0.680699           3.769201
 
 
  C                    hydrogenic:
 
  List of hydrogenic basis orbitals: 
    n    l      effective z      eigenvalue [eV]  inner max. [A]     outer max. [A]     outer radius [A]   
    2    1         1.700000        -9.8152           1.245706           1.245706           5.401630
    3    2         6.000000       -54.4226           0.792453           0.792453           4.178599
    2    0         4.900000       -81.6681           0.082559           0.562749           3.353238
    4    3         9.800000       -81.6681           0.863254           0.863254           4.028125
    3    1         5.200000       -40.8774           0.305389           1.215618           4.898362
    3    0         4.300000       -27.9508           0.091041           1.610311           5.401630
    5    4        14.400000      -112.8510           0.917666           0.917666           3.883070
    3    2         6.200000       -58.1113           0.763917           0.763917           4.077671
 

  Adding cutoff potential to free-atom effective potential.
  Creating atomic-like basis functions for current effective potential.

  Species H                   :

  List of atomic basis orbitals and eigenvalues:
    n    l      energy [Ha]    energy [eV]    outer radius [A]
    1    0        -0.238386        -6.4868       5.373006


  Species C                   :

  List of atomic basis orbitals and eigenvalues:
    n    l      energy [Ha]    energy [eV]    outer radius [A]
    1    0       -10.049212      -273.4530       1.934409
    2    0        -0.504761       -13.7352       5.271162
    2    1        -0.193631        -5.2690       5.401630

  Assembling full basis from fixed parts.
  | Species H :   atomic orbital   1 s accepted.
  | Species H :    hydro orbital   2 s accepted.
  | Species H :    hydro orbital   1 s accepted.
  | Species H :    hydro orbital   2 s accepted.
  | Species H :    hydro orbital   2 p accepted.
  | Species H :    hydro orbital   2 p accepted.
  | Species H :    hydro orbital   3 d accepted.
  | Species C :   atomic orbital   1 s accepted.
  | Species C :    hydro orbital   2 s accepted.
  | Species C :   atomic orbital   2 s accepted.
  | Species C :    hydro orbital   3 s accepted.
  | Species C :    hydro orbital   3 p accepted.
  | Species C :   atomic orbital   2 p accepted.
  | Species C :    hydro orbital   2 p accepted.
  | Species C :    hydro orbital   3 d accepted.
  | Species C :    hydro orbital   3 d accepted.
  | Species C :    hydro orbital   4 f accepted.
  | Species C :    hydro orbital   5 g accepted.
 
  Basis size parameters after reduction:
  | Total number of radial functions:       18
  | Total number of basis functions :     1488
 
  Per-task memory consumption for arrays in subroutine allocate_ext:
  |           4.448056MB.
  Testing on-site integration grid accuracy.
  |  Species  Function  <phi|h_atom|phi> (log., in eV)  <phi|h_atom|phi> (rad., in eV)
           1        1                 -6.4870767962                 -6.4871688290
           1        2                 13.5032046589                 13.5028982997
           1        3                 32.8195184817                 32.8119941656
           1        4                 33.8513856511                 33.7670005767 ***
           1        5                 28.8544614965                 28.8544615203
           1        6                 59.6326952547                 59.6327656460
           1        7                 60.2719308513                 60.2719305949
           2        8               -273.4529726040               -273.4529710464
           2        9                -10.7721037319                -10.7721022101
           2       10                 17.6044132601                 17.6044162063
           2       11                 53.7706460658                 53.7706913770
           2       12                 15.0973290362                 15.0973256030
           2       13                  3.8545134692                  3.8545724687
           2       14                 12.1156992592                 12.1182024431
           2       15                 29.4352039302                 29.4352041816
           2       16                 54.8741144708                 54.8740268729
           2       17                 59.3556032049                 59.3556031382
           2       18                 93.4551837154                 93.4551838009
 * Note: Onsite integrals marked "***" above are less accurate than
 * onsite_accuracy_threshold =    0.03000 eV. Usually, this is harmless.
 * When in doubt, tighten the "radial" and/or "radial_multiplier" flags to check.

  Preparing densities etc. for the partition functions (integrals / Hartree potential).

  Preparations completed.
  max(cpu_time)          :      0.200 s.
  Wall clock time (cpu1) :      0.186 s.
------------------------------------------------------------

------------------------------------------------------------
          Begin self-consistency loop: Initialization.

          Date     :  20210620, Time     :  172959.238
------------------------------------------------------------

  Initializing index lists of integration centers etc. from given atomic structure:
  | Number of centers in hartree potential         :        48
  | Number of centers in hartree multipole         :        48
  | Number of centers in electron density summation:        48
  | Number of centers in basis integrals           :        48
  | Number of centers in integrals                 :        48
  | Number of centers in hamiltonian               :        48
  * Using 56 tasks for Scalapack Eigenvalue solver.
  Detailed listing of tasks and assigned k-points:
  (for non-periodic systems, the "k-point" denotes an internal label only)
   Task     0 k-point     1 on d001
   Task     1 k-point     1 on d001
   Task     2 k-point     1 on d001
   Task     3 k-point     1 on d001
   Task     4 k-point     1 on d001
   Task     5 k-point     1 on d001
   Task     6 k-point     1 on d001
   Task     7 k-point     1 on d001
   Task     8 k-point     1 on d001
   Task     9 k-point     1 on d001
   Task    10 k-point     1 on d001
   Task    11 k-point     1 on d001
   Task    12 k-point     1 on d001
   Task    13 k-point     1 on d001
   Task    14 k-point     1 on d001
   Task    15 k-point     1 on d001
   Task    16 k-point     1 on d001
   Task    17 k-point     1 on d001
   Task    18 k-point     1 on d001
   Task    19 k-point     1 on d001
   Task    20 k-point     1 on d001
   Task    21 k-point     1 on d001
   Task    22 k-point     1 on d001
   Task    23 k-point     1 on d001
   Task    24 k-point     1 on d001
   Task    25 k-point     1 on d001
   Task    26 k-point     1 on d001
   Task    27 k-point     1 on d001
   Task    28 k-point     1 on d001
   Task    29 k-point     1 on d001
   Task    30 k-point     1 on d001
   Task    31 k-point     1 on d001
   Task    32 k-point     1 on d001
   Task    33 k-point     1 on d001
   Task    34 k-point     1 on d001
   Task    35 k-point     1 on d001
   Task    36 k-point     1 on d001
   Task    37 k-point     1 on d001
   Task    38 k-point     1 on d001
   Task    39 k-point     1 on d001
   Task    40 k-point     1 on d001
   Task    41 k-point     1 on d001
   Task    42 k-point     1 on d001
   Task    43 k-point     1 on d001
   Task    44 k-point     1 on d001
   Task    45 k-point     1 on d001
   Task    46 k-point     1 on d001
   Task    47 k-point     1 on d001
   Task    48 k-point     1 on d001
   Task    49 k-point     1 on d001
   Task    50 k-point     1 on d001
   Task    51 k-point     1 on d001
   Task    52 k-point     1 on d001
   Task    53 k-point     1 on d001
   Task    54 k-point     1 on d001
   Task    55 k-point     1 on d001
  Tasks:    56 split into      8 X      7 BLACS grid
  Calculating block size based on n_basis =         1488 max_nprow =            8 max_npcol =            7
  ScaLAPACK block size set to:           16
  Allocating        0.344 MB for ovlp
  Allocating        0.344 MB for ham
  Allocating        0.344 MB for eigenvec
  Required Scalapack workspace - INTEGER:            1 REAL:             1
  Partitioning the integration grid into batches with parallel hashing+maxmin method.
  | Number of batches:     7040
  | Maximal batch size:     200
  | Minimal batch size:       2
  | Average batch size:     115.014
  | Standard deviation of batch sizes:      35.599

  Integration load balanced across     56 MPI tasks.
  Work distribution over tasks is as follows:
  Task      0 has      14682 integration points.
  Task      1 has      14517 integration points.
  Task      2 has      14326 integration points.
  Task      3 has      14558 integration points.
  Task      4 has      14376 integration points.
  Task      5 has      14453 integration points.
  Task      6 has      14377 integration points.
  Task      7 has      14506 integration points.
  Task      8 has      14585 integration points.
  Task      9 has      14388 integration points.
  Task     10 has      14531 integration points.
  Task     11 has      14381 integration points.
  Task     12 has      14487 integration points.
  Task     13 has      14340 integration points.
  Task     14 has      14607 integration points.
  Task     15 has      14444 integration points.
  Task     16 has      14383 integration points.
  Task     17 has      14530 integration points.
  Task     18 has      14497 integration points.
  Task     19 has      14388 integration points.
  Task     20 has      14363 integration points.
  Task     21 has      14536 integration points.
  Task     22 has      14555 integration points.
  Task     23 has      14270 integration points.
  Task     24 has      14532 integration points.
  Task     25 has      14442 integration points.
  Task     26 has      14471 integration points.
  Task     27 has      14359 integration points.
  Task     28 has      14518 integration points.
  Task     29 has      14635 integration points.
  Task     30 has      14363 integration points.
  Task     31 has      14534 integration points.
  Task     32 has      14454 integration points.
  Task     33 has      14498 integration points.
  Task     34 has      14253 integration points.
  Task     35 has      14546 integration points.
  Task     36 has      14526 integration points.
  Task     37 has      14385 integration points.
  Task     38 has      14625 integration points.
  Task     39 has      14405 integration points.
  Task     40 has      14409 integration points.
  Task     41 has      14310 integration points.
  Task     42 has      14478 integration points.
  Task     43 has      14465 integration points.
  Task     44 has      14462 integration points.
  Task     45 has      14575 integration points.
  Task     46 has      14400 integration points.
  Task     47 has      14495 integration points.
  Task     48 has      14328 integration points.
  Task     49 has      14514 integration points.
  Task     50 has      14467 integration points.
  Task     51 has      14436 integration points.
  Task     52 has      14497 integration points.
  Task     53 has      14423 integration points.
  Task     54 has      14409 integration points.
  Task     55 has      14402 integration points.
  Initializing partition tables, free-atom densities, potentials, etc. across the integration grid (initialize_grid_storage).
  | initialize_grid_storage: Actual outermost partition radius vs. multipole_radius_free
  | (-- VB: in principle, multipole_radius_free should be larger, hence this output)
  | Species        1: Confinement radius =              6.000000000000000 AA, multipole_radius_free =              6.071692442739658 AA.
  | Species        1: outer_partition_radius set to              6.071692442739658 AA .
  | Species        2: Confinement radius =              6.000000000000000 AA, multipole_radius_free =              6.029870734432609 AA.
  | Species        2: outer_partition_radius set to              6.029870734432609 AA .
  | The sparse table of interatomic distances needs     27.2680 kbyte instead of    18.4320 kbyte of memory.
  | Using the partition_type stratmann_smoother will reduce your memory usage.
  | Net number of integration points:   809696
  | of which are non-zero points    :   647690
  Renormalizing the initial density to the exact electron count on the 3D integration grid.
  | Initial density: Formal number of electrons (from input files) :     208.0000000000
  | Integrated number of electrons on 3D grid     :     208.0005009471
  | Charge integration error                      :       0.0005009471
  | Normalization factor for density and gradient :       0.9999975916
  Obtaining max. number of non-zero basis functions in each batch (get_n_compute_maxes).
  | Maximal number of non-zero basis functions:     1038
  Selecting the method for density update.
  Loop over occupied states selected for charge density update.
  Hamiltonian matrix size:
  | Size of matrix non-packed:               1107816
  | Size of matrix packed:         1014193
  Allocating        2.666 MB for KS_eigenvector
  use_local_index: Max. local matrix size =       898005
  Task:     0 matrix size:     120786
  Task:     1 matrix size:     192510
  Task:     2 matrix size:     248703
  Task:     3 matrix size:     204184
  Task:     4 matrix size:     297491
  Task:     5 matrix size:     425751
  Task:     6 matrix size:     518995
  Task:     7 matrix size:     451050
  Task:     8 matrix size:     396124
  Task:     9 matrix size:     678179
  Task:    10 matrix size:     358176
  Task:    11 matrix size:     301054
  Task:    12 matrix size:     769248
  Task:    13 matrix size:     755619
  Task:    14 matrix size:     396126
  Task:    15 matrix size:     806553
  Task:    16 matrix size:     825135
  Task:    17 matrix size:     411815
  Task:    18 matrix size:     777084
  Task:    19 matrix size:     420117
  Task:    20 matrix size:     576692
  Task:    21 matrix size:     226801
  Task:    22 matrix size:     177310
  Task:    23 matrix size:     107880
  Task:    24 matrix size:     566102
  Task:    25 matrix size:     417533
  Task:    26 matrix size:     316556
  Task:    27 matrix size:     246971
  Task:    28 matrix size:     297873
  Task:    29 matrix size:     471521
  Task:    30 matrix size:     672986
  Task:    31 matrix size:     201995
  Task:    32 matrix size:     310970
  Task:    33 matrix size:     406483
  Task:    34 matrix size:     205621
  Task:    35 matrix size:     715022
  Task:    36 matrix size:     794530
  Task:    37 matrix size:     898005
  Task:    38 matrix size:     411663
  Task:    39 matrix size:     441367
  Task:    40 matrix size:     492017
  Task:    41 matrix size:     486990
  Task:    42 matrix size:     845875
  Task:    43 matrix size:     779749
  Task:    44 matrix size:     604771
  Task:    45 matrix size:     375138
  Task:    46 matrix size:     387151
  Task:    47 matrix size:     381516
  Task:    48 matrix size:     295695
  Task:    49 matrix size:     653078
  Task:    50 matrix size:     491331
  Task:    51 matrix size:     408694
  Task:    52 matrix size:     389214
  Task:    53 matrix size:     273984
  Task:    54 matrix size:     252673
  Task:    55 matrix size:     198550
  Integrating Hamiltonian matrix: batch-based integration.
  Time summed over all CPUs for integration: real work      156.482 s, elapsed      325.887 s
  Time get_set_sparse_local_matrix_scalapack:     0.016629 s
  Start compute_balanced_batch_distribution
  Done load balancing, time needed:      0.008 s
  Integrating overlap matrix with loadbalancing
  Time summed over all CPUs for integration: real work       43.195 s, elapsed       51.903 s
  Time get_set_full_local_matrix_scalapack:     0.018592 s

  Updating Kohn-Sham eigenvalues and eigenvectors using ELSI and the ELPA eigensolver.
  Overlap matrix is not singular
  | Lowest and highest eigenvalues :  0.12E+02,  0.85E-04
  Finished singularity check of overlap matrix
  | Time :     0.089 s
  Finished Cholesky decomposition
  | Time :     0.020 s
  Finished transformation to standard eigenproblem
  | Time :     0.015 s
  Starting ELPA eigensolver
  Finished solving standard eigenproblem
  | Time :     0.090 s
  Finished back-transformation of eigenvectors
  | Time :     0.004 s

  Obtaining occupation numbers and chemical potential using ELSI.
  | Chemical potential (Fermi level):    -8.11211357 eV
  Writing Kohn-Sham eigenvalues.

  State    Occupation    Eigenvalue [Ha]    Eigenvalue [eV]
      1       2.00000         -10.173558         -276.83661
      2       2.00000         -10.173233         -276.82776
      3       2.00000         -10.172897         -276.81860
      4       2.00000         -10.172846         -276.81724
      5       2.00000         -10.172372         -276.80432
      6       2.00000         -10.172121         -276.79749
      7       2.00000         -10.171880         -276.79093
      8       2.00000         -10.171431         -276.77873
      9       2.00000         -10.171336         -276.77613
     10       2.00000         -10.171324         -276.77581
     11       2.00000         -10.171290         -276.77487
     12       2.00000         -10.171185         -276.77202
     13       2.00000         -10.171133         -276.77060
     14       2.00000         -10.170933         -276.76517
     15       2.00000         -10.170707         -276.75902
     16       2.00000         -10.170239         -276.74628
     17       2.00000         -10.167956         -276.68415
     18       2.00000         -10.166886         -276.65504
     19       2.00000         -10.166538         -276.64559
     20       2.00000         -10.165540         -276.61843
     21       2.00000         -10.164843         -276.59944
     22       2.00000         -10.164450         -276.58876
     23       2.00000         -10.163972         -276.57575
     24       2.00000         -10.163653         -276.56706
     25       2.00000         -10.163624         -276.56627
     26       2.00000         -10.163421         -276.56076
     27       2.00000         -10.163157         -276.55357
     28       2.00000         -10.162930         -276.54739
     29       2.00000         -10.162804         -276.54396
     30       2.00000         -10.162100         -276.52481
     31       2.00000         -10.161527         -276.50923
     32       2.00000         -10.160040         -276.46876
     33       2.00000          -1.026780          -27.94009
     34       2.00000          -1.005417          -27.35878
     35       2.00000          -1.002270          -27.27316
     36       2.00000          -0.986269          -26.83773
     37       2.00000          -0.974456          -26.51629
     38       2.00000          -0.951381          -25.88841
     39       2.00000          -0.943811          -25.68242
     40       2.00000          -0.924204          -25.14886
     41       2.00000          -0.908315          -24.71650
     42       2.00000          -0.905180          -24.63121
     43       2.00000          -0.885021          -24.08265
     44       2.00000          -0.876475          -23.85010
     45       2.00000          -0.874788          -23.80420
     46       2.00000          -0.871655          -23.71895
     47       2.00000          -0.850095          -23.13227
     48       2.00000          -0.844373          -22.97655
     49       2.00000          -0.787312          -21.42386
     50       2.00000          -0.783438          -21.31844
     51       2.00000          -0.776032          -21.11691
     52       2.00000          -0.775441          -21.10082
     53       2.00000          -0.773829          -21.05696
     54       2.00000          -0.741845          -20.18662
     55       2.00000          -0.739082          -20.11145
     56       2.00000          -0.721765          -19.64022
     57       2.00000          -0.714995          -19.45602
     58       2.00000          -0.687760          -18.71490
     59       2.00000          -0.687067          -18.69605
     60       2.00000          -0.682731          -18.57806
     61       2.00000          -0.674305          -18.34879
     62       2.00000          -0.649169          -17.66478
     63       2.00000          -0.645823          -17.57374
     64       2.00000          -0.641520          -17.45665
     65       2.00000          -0.633480          -17.23787
     66       2.00000          -0.629036          -17.11694
     67       2.00000          -0.618865          -16.84017
     68       2.00000          -0.605381          -16.47326
     69       2.00000          -0.603704          -16.42763
     70       2.00000          -0.595682          -16.20932
     71       2.00000          -0.589731          -16.04740
     72       2.00000          -0.582132          -15.84061
     73       2.00000          -0.581287          -15.81762
     74       2.00000          -0.575274          -15.65400
     75       2.00000          -0.567697          -15.44782
     76       2.00000          -0.566448          -15.41382
     77       2.00000          -0.563576          -15.33569
     78       2.00000          -0.556761          -15.15023
     79       2.00000          -0.552604          -15.03711
     80       2.00000          -0.547022          -14.88522
     81       2.00000          -0.538091          -14.64219
     82       2.00000          -0.524593          -14.27490
     83       2.00000          -0.522804          -14.22623
     84       2.00000          -0.521148          -14.18117
     85       2.00000          -0.517146          -14.07227
     86       2.00000          -0.513077          -13.96152
     87       2.00000          -0.510800          -13.89957
     88       2.00000          -0.499540          -13.59318
     89       2.00000          -0.497190          -13.52922
     90       2.00000          -0.496772          -13.51784
     91       2.00000          -0.484305          -13.17861
     92       2.00000          -0.483949          -13.16891
     93       2.00000          -0.474204          -12.90375
     94       2.00000          -0.462530          -12.58608
     95       2.00000          -0.453612          -12.34342
     96       2.00000          -0.437197          -11.89674
     97       2.00000          -0.423850          -11.53354
     98       2.00000          -0.409132          -11.13305
     99       2.00000          -0.403635          -10.98348
    100       2.00000          -0.394660          -10.73925
    101       2.00000          -0.392487          -10.68012
    102       2.00000          -0.384567          -10.46459
    103       2.00000          -0.359305           -9.77720
    104       2.00000          -0.349592           -9.51290
    105       0.00000          -0.260771           -7.09595
    106       0.00000          -0.252009           -6.85751
    107       0.00000          -0.228983           -6.23096
    108       0.00000          -0.221219           -6.01967
    109       0.00000          -0.216600           -5.89398
    110       0.00000          -0.206842           -5.62846
    111       0.00000          -0.198330           -5.39682
    112       0.00000          -0.178768           -4.86452
    113       0.00000          -0.164431           -4.47441
    114       0.00000          -0.141562           -3.85209
    115       0.00000          -0.125052           -3.40283
    116       0.00000          -0.094689           -2.57661
    117       0.00000          -0.080689           -2.19565
    118       0.00000          -0.074263           -2.02081
    119       0.00000          -0.067559           -1.83838
    120       0.00000          -0.066593           -1.81208
    121       0.00000          -0.055350           -1.50615
    122       0.00000          -0.054830           -1.49199
    123       0.00000          -0.041168           -1.12025
    124       0.00000          -0.039245           -1.06791
    125       0.00000          -0.035879           -0.97632
    126       0.00000          -0.032012           -0.87110
    127       0.00000          -0.024610           -0.66966
    128       0.00000          -0.024523           -0.66731
    129       0.00000          -0.019781           -0.53827
    130       0.00000          -0.013999           -0.38094
    131       0.00000          -0.011967           -0.32563
    132       0.00000          -0.010476           -0.28506
    133       0.00000          -0.004499           -0.12242
    134       0.00000          -0.000482           -0.01312
    135       0.00000          -0.000039           -0.00106
    136       0.00000           0.003327            0.09054
    137       0.00000           0.005951            0.16194
    138       0.00000           0.009062            0.24660
    139       0.00000           0.013179            0.35862
    140       0.00000           0.025270            0.68764
    141       0.00000           0.025664            0.69836
    142       0.00000           0.025773            0.70132
    143       0.00000           0.031664            0.86161
    144       0.00000           0.033472            0.91082
    145       0.00000           0.036394            0.99034
    146       0.00000           0.039389            1.07182
    147       0.00000           0.042487            1.15612
    148       0.00000           0.046135            1.25538
    149       0.00000           0.048985            1.33295
    150       0.00000           0.050196            1.36590
    151       0.00000           0.052020            1.41554
    152       0.00000           0.053558            1.45739
    153       0.00000           0.057757            1.57164
    154       0.00000           0.060582            1.64852
    155       0.00000           0.061610            1.67650
    156       0.00000           0.064102            1.74430
    157       0.00000           0.066275            1.80344
    158       0.00000           0.074002            2.01369
    159       0.00000           0.074461            2.02619
    160       0.00000           0.078264            2.12967
    161       0.00000           0.080962            2.20310
    162       0.00000           0.083260            2.26563
    163       0.00000           0.084388            2.29632
    164       0.00000           0.087461            2.37994
    165       0.00000           0.091910            2.50100
    166       0.00000           0.094235            2.56427
    167       0.00000           0.096674            2.63064
    168       0.00000           0.098143            2.67060
    169       0.00000           0.106859            2.90779
    170       0.00000           0.108169            2.94343
    171       0.00000           0.109004            2.96615
    172       0.00000           0.117240            3.19026
    173       0.00000           0.118367            3.22093
    174       0.00000           0.122121            3.32308
    175       0.00000           0.123264            3.35418
    176       0.00000           0.125714            3.42084
    177       0.00000           0.127786            3.47723
    178       0.00000           0.130595            3.55366
    179       0.00000           0.131495            3.57817
    180       0.00000           0.135841            3.69642
    181       0.00000           0.138844            3.77813
    182       0.00000           0.142512            3.87794
    183       0.00000           0.148181            4.03221
    184       0.00000           0.150307            4.09007
    185       0.00000           0.152054            4.13761
    186       0.00000           0.157834            4.29488
    187       0.00000           0.159157            4.33088
    188       0.00000           0.161889            4.40523
    189       0.00000           0.163146            4.43943
    190       0.00000           0.168857            4.59482
    191       0.00000           0.169536            4.61331
    192       0.00000           0.170555            4.64104
    193       0.00000           0.176560            4.80444
    194       0.00000           0.177166            4.82094
    195       0.00000           0.182234            4.95883
    196       0.00000           0.182871            4.97617
    197       0.00000           0.184174            5.01162
    198       0.00000           0.187167            5.09308
    199       0.00000           0.188256            5.12270
    200       0.00000           0.195193            5.31147
    201       0.00000           0.197220            5.36664
    202       0.00000           0.199164            5.41952
    203       0.00000           0.200356            5.45198
    204       0.00000           0.203984            5.55069
    205       0.00000           0.204589            5.56716
    206       0.00000           0.213131            5.79959
    207       0.00000           0.217203            5.91038
    208       0.00000           0.221220            6.01971
    209       0.00000           0.225177            6.12739
    210       0.00000           0.229212            6.23719
    211       0.00000           0.230225            6.26474
    212       0.00000           0.230814            6.28076
    213       0.00000           0.232990            6.33999
    214       0.00000           0.237304            6.45738
    215       0.00000           0.244923            6.66470
    216       0.00000           0.247365            6.73113
    217       0.00000           0.252462            6.86985
    218       0.00000           0.254194            6.91698
    219       0.00000           0.258848            7.04360
    220       0.00000           0.260750            7.09538
    221       0.00000           0.263255            7.16354
    222       0.00000           0.266686            7.25688
    223       0.00000           0.267324            7.27426
    224       0.00000           0.273192            7.43393

  Highest occupied state (VBM) at     -9.51289522 eV
  | Occupation number:      2.00000000

  Lowest unoccupied state (CBM) at    -7.09594958 eV
  | Occupation number:      0.00000000

  Overall HOMO-LUMO gap:      2.41694564 eV.
  Calculating total energy contributions from superposition of free atom densities.

  Total energy components:
  | Sum of eigenvalues            :        -744.21479164 Ha      -20251.11484598 eV
  | XC energy correction          :        -175.54478783 Ha       -4776.81671868 eV
  | XC potential correction       :         225.49062984 Ha        6135.91222982 eV
  | Free-atom electrostatic energy:        -535.78643261 Ha      -14579.49062761 eV
  | Hartree energy correction     :           0.00000000 Ha           0.00000000 eV
  | Entropy correction            :           0.00000000 Ha           0.00000000 eV
  | ---------------------------
  | Total energy                  :       -1230.05538224 Ha      -33471.50996244 eV
  | Total energy, T -> 0          :       -1230.05538224 Ha      -33471.50996244 eV  <-- do not rely on this value for anything but (periodic) metals
  | Electronic free energy        :       -1230.05538224 Ha      -33471.50996244 eV

  Derived energy quantities:
  | Kinetic energy                :        1219.63904492 Ha       33188.06700247 eV
  | Electrostatic energy          :       -2274.14963933 Ha      -61882.76024623 eV
  | Energy correction for multipole
  | error in Hartree potential    :           0.00000000 Ha           0.00000000 eV
  | Sum of eigenvalues per atom                           :        -421.89822596 eV
  | Total energy (T->0) per atom                          :        -697.32312422 eV  <-- do not rely on this value for anything but (periodic) metals
  | Electronic free energy per atom                       :        -697.32312422 eV
  Initialize hartree_potential_storage
  Max. number of atoms included in rho_multipole:           48

  End scf initialization - timings             :  max(cpu_time)    wall_clock(cpu1)
  | Time for scf. initialization               :        8.839 s           8.897 s
  | Boundary condition initialization          :        0.001 s           0.004 s
  | Integration                                :        6.809 s           6.815 s
  | Solution of K.-S. eqns.                    :        0.234 s           0.250 s
  | Grid partitioning                          :        0.781 s           0.785 s
  | Preloading free-atom quantities on grid    :        0.014 s           0.016 s
  | Free-atom superposition energy             :        0.067 s           0.067 s
  | Total energy evaluation                    :        0.001 s           0.005 s

  Partial memory accounting:
  | Current value for overall tracked memory usage on task 0  :           4.183 MB
  | Peak value for overall tracked memory usage on task 0     :          28.741 MB after allocating zora_vector2
  | Largest tracked array allocation on task 0 so far         :           8.620 MB  when allocating hamiltonian_shell
  Note:  These values currently only include a subset of arrays which are explicitly tracked.
  The "true" memory usage will be greater.
------------------------------------------------------------

------------------------------------------------------------
          Begin self-consistency iteration #    1

  Date     :  20210620, Time     :  173008.138
------------------------------------------------------------
  Evaluating new KS density.
  Integration grid: deviation in total charge (<rho> - N_e) =   1.136868E-13
  Pulay mixing of updated and previous charge densities.

  Evaluating partitioned Hartree potential by multipole expansion.
  | Analytical far-field extrapolation by fixed multipoles:
  | Hartree multipole sum: apparent total charge =   0.491945E-03
  Summing up the Hartree potential with load balancing.
  Time summed over all CPUs for potential: real work       25.290 s, elapsed       44.284 s
  | RMS charge density error from multipole expansion :   0.137732E-01

  Start compute_balanced_batch_distribution
  Done load balancing, time needed:      0.008 s
  Integrating Hamiltonian matrix: batch-based integration with load balancing
  Time summed over all CPUs for integration: real work      171.185 s, elapsed      194.133 s
  Time get_set_full_local_matrix_scalapack:     0.018491 s
  Start compute_balanced_batch_distribution
  Done load balancing, time needed:      0.007 s

  Updating Kohn-Sham eigenvalues and eigenvectors using ELSI and the ELPA eigensolver.
  Finished transformation to standard eigenproblem
  | Time :     0.017 s
  Starting ELPA eigensolver
  Finished solving standard eigenproblem
  | Time :     0.089 s
  Finished back-transformation of eigenvectors
  | Time :     0.004 s

  Obtaining occupation numbers and chemical potential using ELSI.
  | Chemical potential (Fermi level):    -5.83807958 eV
  Writing Kohn-Sham eigenvalues.

  State    Occupation    Eigenvalue [Ha]    Eigenvalue [eV]
      1       2.00000          -9.997340         -272.04147
      2       2.00000          -9.994230         -271.95684
      3       2.00000          -9.989238         -271.82100
      4       2.00000          -9.988608         -271.80386
      5       2.00000          -9.986408         -271.74400
      6       2.00000          -9.985617         -271.72247
      7       2.00000          -9.985077         -271.70778
      8       2.00000          -9.984938         -271.70399
      9       2.00000          -9.983104         -271.65409
     10       2.00000          -9.981957         -271.62287
     11       2.00000          -9.981956         -271.62284
     12       2.00000          -9.981527         -271.61117
     13       2.00000          -9.979609         -271.55898
     14       2.00000          -9.972716         -271.37140
     15       2.00000          -9.972110         -271.35493
     16       2.00000          -9.970909         -271.32223
     17       2.00000          -9.956049         -270.91787
     18       2.00000          -9.955458         -270.90179
     19       2.00000          -9.953811         -270.85697
     20       2.00000          -9.953241         -270.84148
     21       2.00000          -9.952476         -270.82064
     22       2.00000          -9.952363         -270.81757
     23       2.00000          -9.952050         -270.80905
     24       2.00000          -9.952024         -270.80836
     25       2.00000          -9.951797         -270.80217
     26       2.00000          -9.950398         -270.76409
     27       2.00000          -9.948842         -270.72176
     28       2.00000          -9.948256         -270.70582
     29       2.00000          -9.943818         -270.58507
     30       2.00000          -9.943649         -270.58046
     31       2.00000          -9.942943         -270.56124
     32       2.00000          -9.942299         -270.54373
     33       2.00000          -0.891282          -24.25301
     34       2.00000          -0.863394          -23.49414
     35       2.00000          -0.860072          -23.40376
     36       2.00000          -0.836158          -22.75300
     37       2.00000          -0.827630          -22.52097
     38       2.00000          -0.810712          -22.06061
     39       2.00000          -0.797376          -21.69770
     40       2.00000          -0.783450          -21.31876
     41       2.00000          -0.768580          -20.91413
     42       2.00000          -0.758376          -20.63645
     43       2.00000          -0.741952          -20.18955
     44       2.00000          -0.736267          -20.03485
     45       2.00000          -0.731708          -19.91079
     46       2.00000          -0.726365          -19.76541
     47       2.00000          -0.704259          -19.16387
     48       2.00000          -0.701507          -19.08899
     49       2.00000          -0.649155          -17.66440
     50       2.00000          -0.646984          -17.60533
     51       2.00000          -0.637227          -17.33984
     52       2.00000          -0.634980          -17.27869
     53       2.00000          -0.634413          -17.26325
     54       2.00000          -0.604033          -16.43656
     55       2.00000          -0.603272          -16.41588
     56       2.00000          -0.582737          -15.85708
     57       2.00000          -0.578287          -15.73598
     58       2.00000          -0.556126          -15.13295
     59       2.00000          -0.554605          -15.09156
     60       2.00000          -0.548112          -14.91489
     61       2.00000          -0.532429          -14.48812
     62       2.00000          -0.517160          -14.07263
     63       2.00000          -0.513462          -13.97202
     64       2.00000          -0.506396          -13.77974
     65       2.00000          -0.499902          -13.60301
     66       2.00000          -0.484751          -13.19075
     67       2.00000          -0.477734          -12.99981
     68       2.00000          -0.471617          -12.83336
     69       2.00000          -0.466910          -12.70526
     70       2.00000          -0.457392          -12.44628
     71       2.00000          -0.454775          -12.37505
     72       2.00000          -0.447759          -12.18414
     73       2.00000          -0.447575          -12.17912
     74       2.00000          -0.441241          -12.00679
     75       2.00000          -0.440520          -11.98715
     76       2.00000          -0.436295          -11.87219
     77       2.00000          -0.432416          -11.76664
     78       2.00000          -0.426215          -11.59790
     79       2.00000          -0.422739          -11.50332
     80       2.00000          -0.417456          -11.35954
     81       2.00000          -0.403710          -10.98550
     82       2.00000          -0.402947          -10.96476
     83       2.00000          -0.397225          -10.80904
     84       2.00000          -0.393964          -10.72031
     85       2.00000          -0.386662          -10.52162
     86       2.00000          -0.384441          -10.46116
     87       2.00000          -0.375740          -10.22442
     88       2.00000          -0.375220          -10.21024
     89       2.00000          -0.366753           -9.97985
     90       2.00000          -0.366233           -9.96571
     91       2.00000          -0.358388           -9.75222
     92       2.00000          -0.346975           -9.44167
     93       2.00000          -0.344354           -9.37036
     94       2.00000          -0.338184           -9.20245
     95       2.00000          -0.332926           -9.05937
     96       2.00000          -0.317931           -8.65135
     97       2.00000          -0.304212           -8.27804
     98       2.00000          -0.286345           -7.79184
     99       2.00000          -0.280685           -7.63782
    100       2.00000          -0.275010           -7.48341
    101       2.00000          -0.274528           -7.47029
    102       2.00000          -0.259716           -7.06723
    103       2.00000          -0.236755           -6.44244
    104       2.00000          -0.228874           -6.22799
    105       0.00000          -0.141199           -3.84222
    106       0.00000          -0.131223           -3.57076
    107       0.00000          -0.108551           -2.95383
    108       0.00000          -0.105181           -2.86212
    109       0.00000          -0.099915           -2.71882
    110       0.00000          -0.086390           -2.35079
    111       0.00000          -0.075719           -2.06042
    112       0.00000          -0.059310           -1.61392
    113       0.00000          -0.045913           -1.24935
    114       0.00000          -0.029757           -0.80974
    115       0.00000          -0.025313           -0.68881
    116       0.00000          -0.023530           -0.64030
    117       0.00000          -0.020468           -0.55696
    118       0.00000          -0.013631           -0.37093
    119       0.00000          -0.012051           -0.32794
    120       0.00000          -0.006672           -0.18157
    121       0.00000           0.001619            0.04406
    122       0.00000           0.004176            0.11364
    123       0.00000           0.016626            0.45243
    124       0.00000           0.018563            0.50513
    125       0.00000           0.023500            0.63946
    126       0.00000           0.031118            0.84676
    127       0.00000           0.031288            0.85138
    128       0.00000           0.041067            1.11749
    129       0.00000           0.041809            1.13767
    130       0.00000           0.045541            1.23923
    131       0.00000           0.056315            1.53240
    132       0.00000           0.063773            1.73535
    133       0.00000           0.065420            1.78017
    134       0.00000           0.070799            1.92653
    135       0.00000           0.077831            2.11789
    136       0.00000           0.081744            2.22437
    137       0.00000           0.084723            2.30543
    138       0.00000           0.086652            2.35792
    139       0.00000           0.091478            2.48923
    140       0.00000           0.092227            2.50963
    141       0.00000           0.094428            2.56952
    142       0.00000           0.100279            2.72874
    143       0.00000           0.101934            2.77376
    144       0.00000           0.109936            2.99151
    145       0.00000           0.112939            3.07324
    146       0.00000           0.115633            3.14654
    147       0.00000           0.117064            3.18546
    148       0.00000           0.117973            3.21021
    149       0.00000           0.122646            3.33737
    150       0.00000           0.126234            3.43501
    151       0.00000           0.129148            3.51430
    152       0.00000           0.130098            3.54016
    153       0.00000           0.131279            3.57228
    154       0.00000           0.133578            3.63484
    155       0.00000           0.136921            3.72582
    156       0.00000           0.143590            3.90729
    157       0.00000           0.144805            3.94034
    158       0.00000           0.146268            3.98014
    159       0.00000           0.151142            4.11277
    160       0.00000           0.153377            4.17359
    161       0.00000           0.154056            4.19207
    162       0.00000           0.156192            4.25020
    163       0.00000           0.158367            4.30938
    164       0.00000           0.161241            4.38758
    165       0.00000           0.161808            4.40303
    166       0.00000           0.169243            4.60533
    167       0.00000           0.169922            4.62381
    168       0.00000           0.173087            4.70993
    169       0.00000           0.175429            4.77366
    170       0.00000           0.176824            4.81162
    171       0.00000           0.180810            4.92010
    172       0.00000           0.186355            5.07099
    173       0.00000           0.188718            5.13528
    174       0.00000           0.193091            5.25427
    175       0.00000           0.193866            5.27536
    176       0.00000           0.196228            5.33962
    177       0.00000           0.197251            5.36748
    178       0.00000           0.200578            5.45800
    179       0.00000           0.201550            5.48446
    180       0.00000           0.205442            5.59037
    181       0.00000           0.206816            5.62774
    182       0.00000           0.211795            5.76325
    183       0.00000           0.215223            5.85652
    184       0.00000           0.216763            5.89842
    185       0.00000           0.221532            6.02819
    186       0.00000           0.225276            6.13008
    187       0.00000           0.225919            6.14756
    188       0.00000           0.236296            6.42994
    189       0.00000           0.237433            6.46089
    190       0.00000           0.241185            6.56297
    191       0.00000           0.242137            6.58887
    192       0.00000           0.244805            6.66147
    193       0.00000           0.246784            6.71534
    194       0.00000           0.249726            6.79539
    195       0.00000           0.250364            6.81276
    196       0.00000           0.254284            6.91943
    197       0.00000           0.255547            6.95380
    198       0.00000           0.258169            7.02514
    199       0.00000           0.262779            7.15058
    200       0.00000           0.263902            7.18114
    201       0.00000           0.268166            7.29717
    202       0.00000           0.271907            7.39897
    203       0.00000           0.277620            7.55443
    204       0.00000           0.279572            7.60754
    205       0.00000           0.282853            7.69683
    206       0.00000           0.285820            7.77755
    207       0.00000           0.289137            7.86782
    208       0.00000           0.295810            8.04941
    209       0.00000           0.300336            8.17256
    210       0.00000           0.302267            8.22511
    211       0.00000           0.310995            8.46260
    212       0.00000           0.311229            8.46898
    213       0.00000           0.314972            8.57081
    214       0.00000           0.317825            8.64847
    215       0.00000           0.318059            8.65483
    216       0.00000           0.326233            8.87725
    217       0.00000           0.326676            8.88931
    218       0.00000           0.329733            8.97250
    219       0.00000           0.336189            9.14817
    220       0.00000           0.339877            9.24854
    221       0.00000           0.340562            9.26715
    222       0.00000           0.345999            9.41511
    223       0.00000           0.349125            9.50016
    224       0.00000           0.351401            9.56212

  Highest occupied state (VBM) at     -6.22799173 eV
[...]
     54       2.00000          -0.543545          -14.79061
     55       2.00000          -0.542870          -14.77224
     56       2.00000          -0.522346          -14.21377
     57       2.00000          -0.516926          -14.06626
     58       2.00000          -0.494375          -13.45262
     59       2.00000          -0.494213          -13.44822
     60       2.00000          -0.487406          -13.26300
     61       2.00000          -0.470151          -12.79346
     62       2.00000          -0.457205          -12.44118
     63       2.00000          -0.451396          -12.28310
     64       2.00000          -0.444976          -12.10842
     65       2.00000          -0.437144          -11.89530
     66       2.00000          -0.423597          -11.52665
     67       2.00000          -0.415752          -11.31319
     68       2.00000          -0.410428          -11.16832
     69       2.00000          -0.405910          -11.04538
     70       2.00000          -0.395237          -10.75496
     71       2.00000          -0.394631          -10.73846
     72       2.00000          -0.391144          -10.64357
     73       2.00000          -0.385953          -10.50232
     74       2.00000          -0.383008          -10.42218
     75       2.00000          -0.378497          -10.29942
     76       2.00000          -0.377897          -10.28310
     77       2.00000          -0.368061          -10.01544
     78       2.00000          -0.366317           -9.96798
     79       2.00000          -0.363007           -9.87792
     80       2.00000          -0.360922           -9.82119
     81       2.00000          -0.355443           -9.67209
     82       2.00000          -0.353702           -9.62472
     83       2.00000          -0.336429           -9.15470
     84       2.00000          -0.334601           -9.10497
     85       2.00000          -0.332144           -9.03811
     86       2.00000          -0.325328           -8.85263
     87       2.00000          -0.320960           -8.73375
     88       2.00000          -0.319672           -8.69873
     89       2.00000          -0.311861           -8.48618
     90       2.00000          -0.303452           -8.25735
     91       2.00000          -0.302545           -8.23267
     92       2.00000          -0.298312           -8.11747
     93       2.00000          -0.291323           -7.92730
     94       2.00000          -0.279222           -7.59803
     95       2.00000          -0.276425           -7.52190
     96       2.00000          -0.272099           -7.40420
     97       2.00000          -0.260688           -7.09367
     98       2.00000          -0.243650           -6.63006
     99       2.00000          -0.238075           -6.47836
    100       2.00000          -0.230986           -6.28546
    101       2.00000          -0.229746           -6.25172
    102       2.00000          -0.217270           -5.91221
    103       2.00000          -0.193104           -5.25463
    104       2.00000          -0.183470           -4.99247
    105       0.00000          -0.095483           -2.59822
    106       0.00000          -0.086754           -2.36070
    107       0.00000          -0.065407           -1.77980
    108       0.00000          -0.061464           -1.67252
    109       0.00000          -0.054619           -1.48626
    110       0.00000          -0.042149           -1.14693
    111       0.00000          -0.031144           -0.84747
    112       0.00000          -0.015544           -0.42297
    113       0.00000          -0.007200           -0.19591
    114       0.00000          -0.002664           -0.07248
    115       0.00000          -0.001720           -0.04681
    116       0.00000          -0.001334           -0.03631
    117       0.00000           0.008786            0.23908
    118       0.00000           0.009482            0.25803
    119       0.00000           0.022366            0.60862
    120       0.00000           0.023682            0.64443
    121       0.00000           0.026220            0.71348
    122       0.00000           0.037880            1.03078
    123       0.00000           0.038365            1.04397
    124       0.00000           0.041512            1.12959
    125       0.00000           0.051438            1.39970
    126       0.00000           0.053126            1.44564
    127       0.00000           0.061604            1.67632
    128       0.00000           0.070232            1.91110
    129       0.00000           0.071182            1.93696
    130       0.00000           0.078903            2.14707
    131       0.00000           0.084014            2.28614
    132       0.00000           0.086450            2.35241
    133       0.00000           0.089024            2.42247
    134       0.00000           0.096900            2.63678
    135       0.00000           0.101109            2.75130
    136       0.00000           0.110358            3.00299
    137       0.00000           0.113097            3.07751
    138       0.00000           0.114978            3.12872
    139       0.00000           0.119982            3.26488
    140       0.00000           0.123777            3.36815
    141       0.00000           0.125461            3.41395
    142       0.00000           0.127137            3.45957
    143       0.00000           0.130928            3.56273
    144       0.00000           0.135689            3.69230
    145       0.00000           0.142169            3.86861
    146       0.00000           0.145765            3.96648
    147       0.00000           0.148097            4.02993
    148       0.00000           0.148503            4.04096
    149       0.00000           0.153880            4.18730
    150       0.00000           0.155384            4.22823
    151       0.00000           0.160367            4.36381
    152       0.00000           0.169548            4.61363
    153       0.00000           0.170367            4.63593
    154       0.00000           0.172407            4.69143
    155       0.00000           0.173441            4.71958
    156       0.00000           0.174490            4.74812
    157       0.00000           0.176359            4.79896
    158       0.00000           0.179137            4.87456
    159       0.00000           0.185005            5.03423
    160       0.00000           0.186054            5.06278
    161       0.00000           0.190259            5.17722
    162       0.00000           0.190946            5.19590
    163       0.00000           0.192956            5.25060
    164       0.00000           0.195628            5.32330
    165       0.00000           0.201091            5.47196
    166       0.00000           0.202703            5.51584
    167       0.00000           0.203890            5.54812
    168       0.00000           0.207279            5.64035
    169       0.00000           0.207370            5.64282
    170       0.00000           0.211782            5.76287
    171       0.00000           0.216639            5.89504
    172       0.00000           0.217135            5.90853
    173       0.00000           0.220494            5.99995
    174       0.00000           0.225354            6.13220
    175       0.00000           0.229298            6.23951
    176       0.00000           0.231614            6.30253
    177       0.00000           0.232974            6.33954
    178       0.00000           0.234142            6.37134
    179       0.00000           0.238381            6.48668
    180       0.00000           0.242123            6.58852
    181       0.00000           0.243308            6.62074
    182       0.00000           0.245602            6.68316
    183       0.00000           0.246139            6.69778
    184       0.00000           0.251511            6.84395
    185       0.00000           0.256909            6.99084
    186       0.00000           0.257437            7.00522
    187       0.00000           0.261215            7.10803
    188       0.00000           0.267072            7.26739
    189       0.00000           0.268102            7.29544
    190       0.00000           0.268704            7.31182
    191       0.00000           0.274413            7.46716
    192       0.00000           0.275718            7.50268
    193       0.00000           0.277979            7.56420
    194       0.00000           0.279846            7.61500
    195       0.00000           0.283198            7.70621
    196       0.00000           0.285066            7.75705
    197       0.00000           0.295851            8.05052
    198       0.00000           0.297561            8.09705
    199       0.00000           0.299829            8.15877
    200       0.00000           0.301569            8.20612
    201       0.00000           0.303443            8.25711
    202       0.00000           0.305501            8.31312
    203       0.00000           0.309935            8.43376
    204       0.00000           0.313435            8.52900
    205       0.00000           0.316079            8.60094
    206       0.00000           0.320117            8.71083
    207       0.00000           0.322312            8.77057
    208       0.00000           0.323801            8.81109
    209       0.00000           0.328714            8.94477
    210       0.00000           0.334010            9.08888
    211       0.00000           0.339743            9.24487
    212       0.00000           0.340856            9.27517
    213       0.00000           0.347802            9.46418
    214       0.00000           0.357571            9.73001
    215       0.00000           0.358324            9.75050
    216       0.00000           0.361889            9.84750
    217       0.00000           0.362168            9.85510
    218       0.00000           0.369169           10.04559
    219       0.00000           0.370798           10.08993
    220       0.00000           0.375997           10.23140
    221       0.00000           0.380540           10.35502
    222       0.00000           0.382616           10.41152
    223       0.00000           0.385987           10.50323
    224       0.00000           0.386415           10.51489

  Highest occupied state (VBM) at     -4.99246644 eV
  | Occupation number:      2.00000000

  Lowest unoccupied state (CBM) at    -2.59821736 eV
  | Occupation number:      0.00000000

  Overall HOMO-LUMO gap:      2.39424907 eV.

  Total energy components:
  | Sum of eigenvalues            :        -699.89608199 Ha      -19045.14139708 eV
  | XC energy correction          :        -178.58037139 Ha       -4859.41915013 eV
  | XC potential correction       :         229.41452213 Ha        6242.68677146 eV
  | Free-atom electrostatic energy:        -535.78643261 Ha      -14579.49062761 eV
  | Hartree energy correction     :         -43.79252958 Ha       -1191.65536054 eV
  | Entropy correction            :           0.00000000 Ha           0.00000000 eV
  | ---------------------------
  | Total energy                  :       -1228.64089344 Ha      -33433.01976388 eV
  | Total energy, T -> 0          :       -1228.64089344 Ha      -33433.01976388 eV  <-- do not rely on this value for anything but (periodic) metals
  | Electronic free energy        :       -1228.64089344 Ha      -33433.01976388 eV

  Derived energy quantities:
  | Kinetic energy                :        1225.30558399 Ha       33342.26137591 eV
  | Electrostatic energy          :       -2275.36610604 Ha      -61915.86198967 eV
  | Energy correction for multipole
  | error in Hartree potential    :          -0.15403948 Ha          -4.19162739 eV
  | Sum of eigenvalues per atom                           :        -396.77377911 eV
  | Total energy (T->0) per atom                          :        -696.52124508 eV  <-- do not rely on this value for anything but (periodic) metals
  | Electronic free energy per atom                       :        -696.52124508 eV
  End evaluation of scaled ZORA corrections.
  | Time for scaled ZORA corrections           :        6.252 s           6.263 s
------------------------------------------------------------

  Energy and forces in a compact form:
  | Total energy uncorrected      :         -0.334330197638834E+05 eV
  | Total energy corrected        :         -0.334330197638834E+05 eV  <-- do not rely on this value for anything but (periodic) metals
  | Electronic free energy        :         -0.334330197638834E+05 eV

  ------------------------------------ 
  Start decomposition of the XC Energy 
  ------------------------------------ 
  X and C from original XC functional choice 
  Hartree-Fock Energy :          0.000000000 Ha              0.000000000 eV
  X Energy            :       -171.556553490 Ha          -4668.291340523 eV
  C Energy            :         -7.023817903 Ha           -191.127809605 eV
  Total XC Energy     :       -178.580371393 Ha          -4859.419150128 eV
  ------------------------------------ 
  LDA X and C from self-consistent density 
  X Energy LDA        :       -155.426196700 Ha          -4229.361999790 eV
  C Energy LDA        :        -13.490962619 Ha           -367.107771095 eV
  ------------------------------------ 
  End decomposition of the XC Energy 
  ------------------------------------ 

------------------------------------------------------------

------------------------------------------------------------------------------
  Final output of selected total energy values:

  The following output summarizes some interesting total energy values
  at the end of a run (AFTER all relaxation, molecular dynamics, etc.).

  | Total energy of the DFT / Hartree-Fock s.c.f. calculation      :         -33433.019763883 eV
  | Final zero-broadening corrected energy (caution - metals only) :         -33433.019763883 eV
  | For reference only, the value of 1 Hartree used in FHI-aims is :             27.211384500 eV

  Before relying on these values, please be sure to understand exactly which
  total energy value is referred to by a given number. Different objects may
  all carry the same name 'total energy'. Definitions:

  Total energy of the DFT / Hartree-Fock s.c.f. calculation:
  | Note that this energy does not include ANY quantities calculated after the
  | s.c.f. cycle, in particular not ANY RPA, MP2, etc. many-body perturbation terms.
  | Scalar relativistic effects have been included in the 'scaled ZORA' approximation.

  Final zero-broadening corrected energy:
  | For metallic systems only, a broadening of the occupation numbers at the Fermi
  | level can be extrapolated back to zero broadening by an electron-gas inspired
  | formula. For all systems that are not real metals, this value can be
  | meaningless and should be avoided.

------------------------------------------------------------------------------
  Methods described in the following list of references were used in this FHI-aims run.
  If you publish the results, please make sure to cite these reference if they apply.
  FHI-aims is an academic code, and for our developers (often, Ph.D. students
  and postdocs), scientific credit in the community is essential.
  Thank you for helping us!

  For any use of FHI-aims, please cite:

    Volker Blum, Ralf Gehrke, Felix Hanke, Paula Havu, Ville Havu,
    Xinguo Ren, Karsten Reuter, and Matthias Scheffler
    'Ab initio molecular simulations with numeric atom-centered orbitals'
    Computer Physics Communications 180, 2175-2196 (2009)
    http://dx.doi.org/10.1016/j.cpc.2009.06.022


  The scalable eigensolver library ELPA was used in your run.
  ELPA is essential especially for large systems on hundreds or thousands of CPUs.
  For ELPA, please cite:

    Andreas Marek, Volker Blum, Rainer Johanni, Ville Havu, Bruno Lang,
    Thomas Auckenthaler, Alexander Heinecke, Hans-Joachim Bungartz, and Hermann Lederer,
    'The ELPA Library - Scalable Parallel Eigenvalue Solutions
    for Electronic Structure Theory and Computational Science'
    The Journal of Physics: Condensed Matter 26, 213201 (2014).
    http://dx.doi.org/10.1088/0953-8984/26/21/213201


  The ELSI infrastructure was used in your run to solve the Kohn-Sham electronic structure.
  Please check out http://elsi-interchange.org to learn more.
  If scalability is important for your project, please acknowledge ELSI by citing:

    V. W-z. Yu, F. Corsetti, A. Garcia, W. P. Huhn, M. Jacquelin, W. Jia,
    B. Lange, L. Lin, J. Lu, W. Mi, A. Seifitokaldani, A. Vazquez-Mayagoitia,
    C. Yang, H. Yang, and V. Blum
    'ELSI: A unified software interface for Kohn-Sham electronic structure solvers'
    Computer Physics Communications 222, 267-285 (2018).
    http://dx.doi.org/10.1016/j.cpc.2017.09.007


  For the real-space grid partitioning and parallelization used in this calculation, please cite:

    Ville Havu, Volker Blum, Paula Havu, and Matthias Scheffler,
    'Efficient O(N) integration for all-electron electronic structure calculation'
    'using numerically tabulated basis functions'
    Journal of Computational Physics 228, 8367-8379 (2009).
    http://dx.doi.org/10.1016/j.jcp.2009.08.008

  Of course, there are many other important community references, e.g., those cited in the
  above references. Our list is limited to references that describe implementations in the
  FHI-aims code. The reason is purely practical (length of this list) - please credit others as well.

------------------------------------------------------------
          Leaving FHI-aims.
          Date     :  20210620, Time     :  173144.712

          Computational steps:
          | Number of self-consistency cycles          :           17
          | Number of SCF (re)initializations          :            1

          Detailed time accounting                     :  max(cpu_time)    wall_clock(cpu1)
          | Total time                                 :      105.666 s         105.853 s
          | Preparation time                           :        0.200 s           0.186 s
          | Boundary condition initalization           :        0.001 s           0.004 s
          | Grid partitioning                          :        0.781 s           0.785 s
          | Preloading free-atom quantities on grid    :        0.014 s           0.016 s
          | Free-atom superposition energy             :        0.067 s           0.067 s
          | Total time for integrations                :       61.435 s          61.442 s
          | Total time for solution of K.-S. equations :        2.873 s           2.897 s
          | Total time for density update              :       23.585 s          23.542 s
          | Total time for mixing                      :        0.132 s           0.135 s
          | Total time for Hartree multipole update    :        0.152 s           0.158 s
          | Total time for Hartree multipole sum       :        8.988 s           8.993 s
          | Total time for total energy evaluation     :        0.007 s           0.031 s
          | Total time for scaled ZORA corrections     :        6.252 s           6.263 s

          Partial memory accounting:
          | Residual value for overall tracked memory usage across tasks :     0.000000 MB (should be 0.000000 MB)
          | Peak values for overall tracked memory usage (after allocating zora_vector2):
          |   Minimum:       29.452 MB (on task  1)
          |   Maximum:       37.914 MB (on task 38)
          |   Average:       33.295 MB
          | Largest tracked array allocation (hamiltonian_shell):
          |   Minimum:        8.620 MB (on task  1)
          |   Maximum:        8.620 MB (on task  1)
          |   Average:        8.620 MB
          Note:  These values currently only include a subset of arrays which are explicitly tracked.
          The "true" memory usage will be greater.

          Have a nice day.
------------------------------------------------------------
