  MPI-parallelism will be employed.
------------------------------------------------------------
          Invoking FHI-aims ...
          Version 180607
          Git rev. (modified): 6724847 Fix JSON memory corruption in scf_solver
          Compiled on 2018/06/27 at 16:00:31 on host coe.psc.edu.

          When using FHI-aims, please cite the following reference:

          Volker Blum, Ralf Gehrke, Felix Hanke, Paula Havu,
          Ville Havu, Xinguo Ren, Karsten Reuter, and Matthias Scheffler,
          'Ab Initio Molecular Simulations with Numeric Atom-Centered Orbitals',
          Computer Physics Communications 180, 2175-2196 (2009)

          For any questions about FHI-aims, please visit the aimsclub website
          with its forums and wiki. Contributions to both the forums and the
          wiki are warmly encouraged - they are for you, and everyone is welcome there.

------------------------------------------------------------



  Date     :  20210727, Time     :  230636.675
  Time zero on CPU 1             :   0.370371000000000E+00  s.
  Internal wall clock time zero  :           396659196.675  s.

  FHI-aims created a unique identifier for this run for later identification
  aims_uuid : 0564D938-8D1B-4811-ADA3-98786C3E6BCA

  Using       56 parallel tasks.
  Task        0 on host d032 reporting.
  Task        1 on host d032 reporting.
  Task        2 on host d032 reporting.
  Task        3 on host d032 reporting.
  Task        4 on host d032 reporting.
  Task        5 on host d032 reporting.
  Task        6 on host d032 reporting.
  Task        7 on host d032 reporting.
  Task        8 on host d032 reporting.
  Task        9 on host d032 reporting.
  Task       10 on host d032 reporting.
  Task       11 on host d032 reporting.
  Task       12 on host d032 reporting.
  Task       13 on host d032 reporting.
  Task       14 on host d032 reporting.
  Task       15 on host d032 reporting.
  Task       16 on host d032 reporting.
  Task       17 on host d032 reporting.
  Task       18 on host d032 reporting.
  Task       19 on host d032 reporting.
  Task       20 on host d032 reporting.
  Task       21 on host d032 reporting.
  Task       22 on host d032 reporting.
  Task       23 on host d032 reporting.
  Task       24 on host d032 reporting.
  Task       25 on host d032 reporting.
  Task       26 on host d032 reporting.
  Task       27 on host d032 reporting.
  Task       28 on host d032 reporting.
  Task       29 on host d032 reporting.
  Task       30 on host d032 reporting.
  Task       31 on host d032 reporting.
  Task       32 on host d032 reporting.
  Task       33 on host d032 reporting.
  Task       34 on host d032 reporting.
  Task       35 on host d032 reporting.
  Task       36 on host d032 reporting.
  Task       37 on host d032 reporting.
  Task       38 on host d032 reporting.
  Task       39 on host d032 reporting.
  Task       40 on host d032 reporting.
  Task       41 on host d032 reporting.
  Task       42 on host d032 reporting.
  Task       43 on host d032 reporting.
  Task       44 on host d032 reporting.
  Task       45 on host d032 reporting.
  Task       46 on host d032 reporting.
  Task       47 on host d032 reporting.
  Task       48 on host d032 reporting.
  Task       49 on host d032 reporting.
  Task       50 on host d032 reporting.
  Task       51 on host d032 reporting.
  Task       52 on host d032 reporting.
  Task       53 on host d032 reporting.
  Task       54 on host d032 reporting.
  Task       55 on host d032 reporting.

  Performing system and environment tests:
  *** Environment variable OMP_NUM_THREADS is not set
  *** For performance reasons you might want to set it to 1
  | Stacksize not measured: no C compiler
  | Checking for scalapack...
  | Testing pdtran()...
  | All pdtran() tests passed.

  Obtaining array dimensions for all initial allocations:
  
  -----------------------------------------------------------------------
  Parsing control.in (first pass over file, find array dimensions only).
  The contents of control.in will be repeated verbatim below
  unless switched off by setting 'verbatim_writeout .false.' .
  in the first line of control.in .
  -----------------------------------------------------------------------
  
  #===============================================================================
  # FHI-aims file: ./Runs/es/control.in
  # Created using the Atomic Simulation Environment (ASE)
  # Mon Jan 13 16:04:38 2020
  #===============================================================================
  xc                                 pbe
  relativistic                       zora scalar 1e-12
  occupation_type                    gaussian 0.0001
  load_balancing                     .true.
  KS_method                          scalapack_fast
  mixer                              pulay
  n_max_pulay                        5
  charge_mix_param                   0.4
  sc_accuracy_etot                   1e-6
  sc_accuracy_eev                    1e-4
  sc_accuracy_rho                    1e-6
  sc_iter_limit                      100
  prodbas_threshold                  1e-4
  basis_threshold                    1e-5
  override_illconditioning           .true.
  use_logsbt                         .true.
  spin                               none
  charge                             0
  #===============================================================================
  
  ################################################################################
  #
  #  FHI-aims code project
  # Volker Blum, Fritz Haber Institute Berlin, 2009
  #
  #  Suggested "tight" defaults for H atom (to be pasted into control.in file)
  #
  ################################################################################
    species        H
  #     global species definitions
      nucleus             1
      mass                1.00794
  #
      l_hartree           6
  #
      cut_pot             4.0  2.0  1.0
      basis_dep_cutoff    1e-4
  #
      radial_base         24 7.0
      radial_multiplier   2
      angular_grids       specified
        division   0.1930   50
        division   0.3175  110
        division   0.4293  194
        division   0.5066  302
        division   0.5626  434
  #      division   0.5922  590
  #      division   0.6227  974
  #      division   0.6868 1202
  #      outer_grid  770
        outer_grid  434
  ################################################################################
  #
  #  Definition of "minimal" basis
  #
  ################################################################################
  #     valence basis states
      valence      1  s   1.
  #     ion occupancy
      ion_occ      1  s   0.5
  ################################################################################
  #
  #  Suggested additional basis functions. For production calculations,
  #  uncomment them one after another (the most important basis functions are
  #  listed first).
  #
  #  Basis constructed for dimers: 0.5 A, 0.7 A, 1.0 A, 1.5 A, 2.5 A
  #
  ################################################################################
  #  "First tier" - improvements: -1014.90 meV to -62.69 meV
       hydro 2 s 2.1
       hydro 2 p 3.5
  #  "Second tier" - improvements: -12.89 meV to -1.83 meV
       hydro 1 s 0.85
       hydro 2 p 3.7
       hydro 2 s 1.2
       hydro 3 d 7
  #  "Third tier" - improvements: -0.25 meV to -0.12 meV
  #     hydro 4 f 11.2
  #     hydro 3 p 4.8
  #     hydro 4 d 9
  #     hydro 3 s 3.2
  ################################################################################
  #
  # For methods that use the localized form of the "resolution of identity" for
  # the two-electron Coulomb operator (RI_method LVL), particularly Hartree-Fock and
  # hybrid density functional calculations, the highest accuracy can be obtained by
  # uncommenting the line beginning with "for_aux"  below, thus adding an extra g radial
  # function to the construction of the product basis set for the expansion.
  # See Ref. New J. Phys. 17, 093020 (2015) for more information, particularly Figs. 1 and 6.
  #
  ################################################################################
  #
  # for_aux hydro 5 g 6.0
  ################################################################################
  #
  #  FHI-aims code project
  # Volker Blum, Fritz Haber Institute Berlin, 2009
  #
  #  Suggested "tight" defaults for C atom (to be pasted into control.in file)
  #
  ################################################################################
    species        C
  #     global species definitions
      nucleus             6
      mass                12.0107
  #
      l_hartree           6
  #
      cut_pot             4.0  2.0  1.0
      basis_dep_cutoff    1e-4
  #
      radial_base         34 7.0
      radial_multiplier   2
      angular_grids specified
        division   0.2187   50
        division   0.4416  110
        division   0.6335  194
        division   0.7727  302
        division   0.8772  434
  #      division   0.9334  590
  #      division   0.9924  770
  #      division   1.0230  974
  #      division   1.5020 1202
  #     outer_grid  974
        outer_grid  434
  ################################################################################
  #
  #  Definition of "minimal" basis
  #
  ################################################################################
  #     valence basis states
      valence      2  s   2.
      valence      2  p   2.
  #     ion occupancy
      ion_occ      2  s   1.
      ion_occ      2  p   1.
  ################################################################################
  #
  #  Suggested additional basis functions. For production calculations,
  #  uncomment them one after another (the most important basis functions are
  #  listed first).
  #
  #  Constructed for dimers: 1.0 A, 1.25 A, 1.5 A, 2.0 A, 3.0 A
  #
  ################################################################################
  #  "First tier" - improvements: -1214.57 meV to -155.61 meV
       hydro 2 p 1.7
       hydro 3 d 6
       hydro 2 s 4.9
  #  "Second tier" - improvements: -67.75 meV to -5.23 meV
       hydro 4 f 9.8
       hydro 3 p 5.2
       hydro 3 s 4.3
       hydro 5 g 14.4
       hydro 3 d 6.2
  #  "Third tier" - improvements: -2.43 meV to -0.60 meV
  #     hydro 2 p 5.6
  #     hydro 2 s 1.4
  #     hydro 3 d 4.9
  #     hydro 4 f 11.2
  #  "Fourth tier" - improvements: -0.39 meV to -0.18 meV
  #     hydro 2 p 2.1
  #     hydro 5 g 16.4
  #     hydro 4 d 13.2
  #     hydro 3 s 13.6
  #     hydro 4 f 17.6
  #  Further basis functions - improvements: -0.08 meV and below
  #     hydro 3 s 2
  #     hydro 3 p 6
  #     hydro 4 d 20
  ################################################################################
  #
  # For methods that use the localized form of the "resolution of identity" for
  # the two-electron Coulomb operator (RI_method LVL), particularly Hartree-Fock and
  # hybrid density functional calculations, the highest accuracy can be obtained by
  # uncommenting the line beginning with "for_aux"  below, thus adding an extra g radial
  # function to the construction of the product basis set for the expansion.
  # See Ref. New J. Phys. 17, 093020 (2015) for more information, particularly Figs. 1 and 6.
  #
  ################################################################################
  #
  # for_aux hydro 5 g 6.0
  
  -----------------------------------------------------------------------
  Completed first pass over input file control.in .
  -----------------------------------------------------------------------
  
  
  -----------------------------------------------------------------------
  Parsing geometry.in (first pass over file, find array dimensions only).
  The contents of geometry.in will be repeated verbatim below
  unless switched off by setting 'verbatim_writeout .false.' .
  in the first line of geometry.in .
  -----------------------------------------------------------------------
  
  #=======================================================
  # FHI-aims file: geometry.in
  # Created using the Atomic Simulation Environment (ASE)
  # Mon Jul 26 17:53:15 2021
  #=======================================================
  atom 38.1462190000000021 43.6147009999999966 46.2324040000000025 H
  atom 38.2344730000000013 44.5659989999999979 45.7110160000000008 C
  atom 37.1724480000000028 44.9867259999999973 44.9161130000000028 C
  atom 39.3883750000000035 45.3195139999999981 45.8387079999999969 C
  atom 35.9702720000000014 44.1056140000000028 44.8062579999999997 C
  atom 37.2892390000000020 46.1989019999999968 44.2521959999999979 C
  atom 40.2044039999999967 44.9516819999999981 46.4583050000000028 H
  atom 39.4771360000000016 46.5282410000000013 45.2080290000000034 C
  atom 35.5467080000000024 43.5452200000000005 43.6185929999999971 C
  atom 35.3349260000000029 43.6955779999999976 46.0409330000000026 C
  atom 36.4774919999999980 46.5547669999999982 43.6229549999999975 H
  atom 38.4306830000000019 46.9679349999999971 44.4110799999999983 C
  atom 40.3538989999999984 47.1606140000000025 45.3414379999999966 H
  atom 34.3367459999999980 42.7399759999999986 43.6414809999999989 C
  atom 36.2645869999999988 43.5843610000000012 42.3208959999999976 C
  atom 34.6668779999999970 42.4223619999999997 46.0405960000000007 C
  atom 35.3691850000000017 44.4428849999999969 47.2428999999999988 C
  atom 38.4946869999999990 47.9369110000000020 43.9181570000000008 H
  atom 34.0144009999999994 42.0554330000000007 44.8021889999999985 C
  atom 33.4849460000000008 42.7882559999999970 42.4250690000000006 C
  atom 35.5420360000000031 43.2934729999999988 41.1389479999999992 C
  atom 37.6505149999999986 43.7297190000000029 42.2238019999999992 C
  atom 34.6746639999999999 41.6847110000000001 47.2549810000000008 C
  atom 35.0842129999999983 43.7900690000000026 48.4623670000000004 C
  atom 35.6354699999999980 45.9062899999999985 47.1812740000000019 C
  atom 32.9554899999999975 41.0139619999999994 44.7769509999999968 C
  atom 32.0943469999999991 42.6779020000000031 42.4634840000000011 C
  atom 34.0907049999999998 43.1313900000000032 41.1984789999999990 C
  atom 36.2334430000000012 43.1572540000000018 39.9379559999999998 C
  atom 38.3045479999999969 43.5934999999999988 41.0103890000000035 C
  atom 38.2342540000000000 43.9269109999999969 43.1157839999999979 H
  atom 34.2838009999999969 40.2494119999999995 47.3127259999999978 C
  atom 35.0717550000000031 42.3416649999999990 48.4457599999999999 C
  atom 34.7447390000000027 44.4194350000000000 49.7254840000000016 C
  atom 34.8895600000000030 46.6903250000000014 46.3005009999999970 C
  atom 36.5978330000000014 46.5282410000000013 47.9701170000000019 C
  atom 31.8483060000000009 41.0674149999999969 45.5866949999999989 C
  atom 33.0473670000000013 39.9569720000000004 43.8711100000000016 C
  atom 31.6042629999999996 42.4450140000000005 43.4046009999999995 H
  atom 31.3157360000000011 42.8882649999999970 41.3489250000000013 C
  atom 33.2669349999999966 43.3400290000000012 40.0696030000000007 C
  atom 35.6728319999999997 42.8683010000000024 39.0510639999999967 H
  atom 37.5928979999999981 43.3055430000000001 39.8656870000000012 C
  atom 39.3908959999999979 43.6740309999999994 40.9764270000000010 H
  atom 33.3152090000000030 39.8155799999999971 48.2129919999999998 C
  atom 34.8848890000000011 39.3103630000000024 46.4848309999999998 C
  atom 35.5124489999999966 41.6691920000000025 49.6528860000000023 C
  atom 34.2433130000000006 45.8178339999999977 49.8280420000000035 C
  atom 34.8007989999999978 43.6486769999999993 50.8725919999999974 C
  atom 34.1366859999999974 46.2043949999999981 45.6825109999999981 H
  atom 35.0857699999999966 48.0576870000000014 46.2064870000000028 C
  atom 37.2116410000000002 45.9319780000000009 48.6454290000000000 H
  atom 36.7909280000000010 47.8990519999999975 47.8880049999999997 C
  atom 30.8485690000000012 40.1087100000000021 45.4859980000000022 C
  atom 31.7479849999999999 41.8699689999999975 46.3165660000000017 H
  atom 32.0943469999999991 38.9965430000000026 43.7387330000000034 C
  atom 33.9398419999999987 39.9108310000000017 43.2469099999999997 H
  atom 30.2306649999999983 42.8270290000000031 41.4314960000000028 H
  atom 31.9012509999999985 43.2227770000000007 40.1474350000000015 C
  atom 33.7281070000000014 43.6817569999999975 39.1449840000000009 H
  atom 38.1142439999999993 43.1730829999999983 38.9184290000000033 H
  atom 32.9663910000000016 38.4809800000000024 48.3000579999999999 C
  atom 32.8194299999999970 40.5484179999999981 48.8517229999999998 H
  atom 34.5236129999999974 37.9671420000000026 46.5720740000000006 C
  atom 35.6532440000000008 39.6278239999999968 45.7823360000000008 H
  atom 36.0777209999999968 40.2845870000000019 49.6298740000000009 C
  atom 35.5186780000000013 42.3882210000000015 50.8388330000000011 C
  atom 33.1766160000000028 46.2833919999999992 49.0651319999999984 C
  atom 34.7587540000000033 46.6592869999999991 50.8232029999999995 C
  atom 34.0969339999999974 43.9262879999999996 52.1471019999999967 C
  atom 34.4980600000000024 48.6481870000000001 45.5054179999999988 H
  atom 36.0341179999999994 48.6611880000000028 47.0121309999999966 C
  atom 37.5411209999999969 48.3755570000000006 48.5201580000000021 H
  atom 29.9758989999999983 40.1543279999999996 46.1345949999999974 H
  atom 30.9747039999999991 39.0965509999999981 44.5391669999999991 C
  atom 32.2155190000000005 38.1783590000000004 43.0296110000000027 H
  atom 31.2837320000000005 43.4138039999999990 39.2700969999999998 H
  atom 32.2040989999999994 38.1656759999999977 49.0125489999999999 H
  atom 33.5674789999999987 37.5688310000000030 47.4887650000000008 C
  atom 35.0066649999999981 37.2396839999999969 45.9209729999999965 H
  atom 35.6307979999999986 39.3396759999999972 50.5571920000000006 C
  atom 37.1366319999999988 39.9449019999999990 48.8025739999999999 C
  atom 36.2770450000000011 42.0588819999999970 52.0569410000000019 C
  atom 32.7552850000000007 45.6638919999999970 48.2744539999999986 H
  atom 32.6097869999999972 47.5197080000000014 49.3340930000000029 C
  atom 34.1825809999999990 47.8938789999999983 51.0813500000000005 C
  atom 35.6100569999999976 46.3182490000000016 51.4131870000000006 H
  atom 32.8682859999999977 44.6091070000000016 52.1947040000000015 C
  atom 34.5765590000000032 43.3262349999999969 53.3303200000000004 C
  atom 36.1916269999999969 49.7366600000000005 46.9535410000000013 H
  atom 30.1778140000000015 38.3602940000000032 44.4459019999999967 H
  atom 33.2945899999999995 36.5162830000000014 47.5650410000000008 H
  atom 34.7871669999999966 39.5885320000000007 51.2002600000000001 H
  atom 36.2521300000000011 38.1033600000000021 50.6632790000000028 C
  atom 37.7688640000000007 38.7189320000000023 48.9376960000000025 C
  atom 37.4910569999999979 40.6501870000000025 48.0513139999999979 H
  atom 35.8472519999999975 42.5899629999999974 53.2841260000000005 C
  atom 37.5119219999999984 41.3777869999999979 52.0300480000000007 C
  atom 31.7628689999999985 47.8595290000000020 48.7412670000000006 H
  atom 33.0971979999999988 48.3077090000000027 50.3561070000000015 C
  atom 34.5864449999999977 48.5322919999999982 51.8674060000000026 H
  atom 32.4599580000000003 45.0570039999999992 51.2936279999999982 H
  atom 32.1426209999999983 44.6849750000000014 53.3671760000000006 C
  atom 33.8181909999999988 43.4227950000000007 54.4963249999999988 C
  atom 35.8843529999999973 37.3688429999999983 51.3808059999999998 H
  atom 37.3343989999999977 37.8102310000000017 49.8724989999999977 C
  atom 38.6220909999999975 38.4882029999999986 48.3014209999999977 H
  atom 36.6507780000000025 42.4261550000000014 54.4249659999999977 C
  atom 37.8825310000000002 40.9799330000000026 51.0901929999999993 H
  atom 38.2780750000000012 41.2329470000000029 53.1562780000000004 C
  atom 32.6187639999999988 49.2588280000000012 50.5789079999999984 H
  atom 31.1817449999999994 45.1982720000000029 53.3662479999999988 H
  atom 32.6191299999999984 44.0918199999999985 54.5243499999999983 C
  atom 34.1738250000000008 42.9212130000000016 55.3950630000000004 H
  atom 37.8401980000000009 36.8517930000000007 49.9795269999999974 H
  atom 36.3295760000000030 42.8741860000000017 55.3618859999999984 H
  atom 37.8467249999999993 41.7519580000000019 54.3659719999999993 C
  atom 39.2363649999999993 40.7218500000000034 53.0875419999999991 H
  atom 32.0354799999999997 44.1384830000000008 55.4425480000000022 H
  atom 38.4672020000000003 41.6621219999999965 55.2576930000000033 H
  
  -----------------------------------------------------------------------
  Completed first pass over input file geometry.in .
  -----------------------------------------------------------------------
  

  Basic array size parameters:
  | Number of species                 :        2
  | Number of atoms                   :      120
  | Max. basis fn. angular momentum   :        4
  | Max. atomic/ionic basis occupied n:        2
  | Max. number of basis fn. types    :        2
  | Max. radial fns per species/type  :        8
  | Max. logarithmic grid size        :     1277
  | Max. radial integration grid size :       69
  | Max. angular integration grid size:      434
  | Max. angular grid division number :        8
  | Radial grid for Hartree potential :     1277
  | Number of spin channels           :        1

------------------------------------------------------------
          Reading file control.in.
------------------------------------------------------------
  XC: Using PBE gradient-corrected functionals.
  Scalar relativistic treatment of kinetic energy: ZORA.
  Threshold value for ZORA:   0.100000E-11
  Occupation type: Gaussian broadening, width =   0.100000E-03 eV.
  Since 'load_balancing .true.' is present in control.in, automatically turning on 'use_local_index .true.'.
  Using load balancing for integrations.
  Kohn-Sham electronic structure solved by the ELSI library.
  Using pulay charge density mixing.
  Pulay mixing - number of memorized iterations:    5
  Charge density mixing - mixing parameter:     0.4000
  Convergence accuracy of total energy:  0.1000E-05
  Convergence accuracy of sum of eigenvalues:  0.1000E-03
  Convergence accuracy of self-consistent charge density:  0.1000E-05
  Maximum number of s.-c. iterations  :   100
  * Ignoring prodbas_threshold
  Threshold for basis singularities:  0.1000E-04
  override_illconditioning: Explicitly overriding any built-in checks for an ill-conditioned overlap matrix.
  *** WARNING: If you use this flag, you should really know what you are doing.
  *** DO NOT keep this flag set by default in all your control.in files.
  Using 1D integrations for auxiliary 2-center integrals.
  Spin treatment: No spin polarisation.
  Charge =   0.000000E+00: Neutral system requested explicitly.
 
  Reading configuration options for species H                   .
  | Found nuclear charge :   1.0000
  | Found atomic mass :    1.00794000000000      amu
  | Found l_max for Hartree potential  :   6
  | Found cutoff potl. onset [A], width [A], scale factor :    4.00000    2.00000    1.00000
  | Threshold for basis-dependent cutoff potential is   0.100000E-03
  | Found data for basic radial integration grid :    24 points, outermost radius =    7.000 A
  | Found multiplier for basic radial grid :   2
  | Found angular grid specification: user-specified.
  | Specified grid contains     6 separate shells.
  | Check grid settings after all constraints further below.
  | Found free-atom valence shell :  1 s   1.000
  | No ionic wave fns used. Skipping ion_occ.
  | Found hydrogenic basis function :  2 s   2.100
  | Found hydrogenic basis function :  2 p   3.500
  | Found hydrogenic basis function :  1 s   0.850
  | Found hydrogenic basis function :  2 p   3.700
  | Found hydrogenic basis function :  2 s   1.200
  | Found hydrogenic basis function :  3 d   7.000
  Species H                   : Missing cutoff potential type.
  Defaulting to exp(1/x)/(1-x)^2 type cutoff potential.
  Species H : No 'logarithmic' tag. Using default grid for free atom:
  | Default logarithmic grid data [bohr] : 0.1000E-03 0.1000E+03 0.1012E+01
  Species H : On-site basis accuracy parameter (for Gram-Schmidt orthonormalisation) not specified.
  Using default value basis_acc =  0.1000000E-03.
  Species H                   : Using default innermost maximum threshold i_radial=  2 for radial functions.
  Species H                   : Default cutoff onset for free atom density etc. : 0.40000000E+01 AA.
  Species H                   : Basic radial grid will be enhanced according to radial_multiplier =   2, to contain    49 grid points.
 
  Reading configuration options for species C                   .
  | Found nuclear charge :   6.0000
  | Found atomic mass :    12.0107000000000      amu
  | Found l_max for Hartree potential  :   6
  | Found cutoff potl. onset [A], width [A], scale factor :    4.00000    2.00000    1.00000
  | Threshold for basis-dependent cutoff potential is   0.100000E-03
  | Found data for basic radial integration grid :    34 points, outermost radius =    7.000 A
  | Found multiplier for basic radial grid :   2
  | Found angular grid specification: user-specified.
  | Specified grid contains     6 separate shells.
  | Check grid settings after all constraints further below.
  | Found free-atom valence shell :  2 s   2.000
  | Found free-atom valence shell :  2 p   2.000
  | No ionic wave fns used. Skipping ion_occ.
  | No ionic wave fns used. Skipping ion_occ.
  | Found hydrogenic basis function :  2 p   1.700
  | Found hydrogenic basis function :  3 d   6.000
  | Found hydrogenic basis function :  2 s   4.900
  | Found hydrogenic basis function :  4 f   9.800
  | Found hydrogenic basis function :  3 p   5.200
  | Found hydrogenic basis function :  3 s   4.300
  | Found hydrogenic basis function :  5 g  14.400
  | Found hydrogenic basis function :  3 d   6.200
  Species C                   : Missing cutoff potential type.
  Defaulting to exp(1/x)/(1-x)^2 type cutoff potential.
  Species C : No 'logarithmic' tag. Using default grid for free atom:
  | Default logarithmic grid data [bohr] : 0.1000E-03 0.1000E+03 0.1012E+01
  Species C : On-site basis accuracy parameter (for Gram-Schmidt orthonormalisation) not specified.
  Using default value basis_acc =  0.1000000E-03.
  Species C                   : Using default innermost maximum threshold i_radial=  2 for radial functions.
  Species C                   : Default cutoff onset for free atom density etc. : 0.40000000E+01 AA.
  Species C                   : Basic radial grid will be enhanced according to radial_multiplier =   2, to contain    69 grid points.
 
  Finished reading input file 'control.in'. Consistency checks are next.
 
  MPI_IN_PLACE appears to work with this MPI implementation.
  | Keeping use_mpi_in_place .true. (see manual).
  Target number of points in a grid batch is not set. Defaulting to  100
  Method for grid partitioning is not set. Defaulting to parallel hash+maxmin partitioning.
  Batch size limit is not set. Defaulting to    200
  By default, will store active basis functions for each batch.
  If in need of memory, prune_basis_once .false. can be used to disable this option.
  communication_type for Hartree potential was not specified.
  Defaulting to calc_hartree .
  Pulay mixer: Number of initial linear mixing iterations not set.
  Defaulting to    0 iterations.
  Work space size for distributed Hartree potential not set.
  Defaulting to   0.200000E+03 MB.
  Algorithm-dependent basis array size parameters:
  | n_max_pulay                         :        5
  Presetting      1001 iterations before the initial mixing cycle
  is restarted anyway using the sc_init_iter criterion / keyword.
  Presetting a factor      1.000 between actual scf density residual
  and density convergence criterion sc_accuracy_rho below which sc_init_iter
  takes no effect.
  Calculation of forces was not defined in control.in. No forces will be calculated.
  Geometry relaxation not requested: no relaxation will be performed.
  No accuracy limit for integral partition fn. given. Defaulting to  0.1000E-14.
  No threshold value for u(r) in integrations given. Defaulting to  0.1000E-05.
  No accuracy for occupation numbers given. Defaulting to  0.1000E-12.
  No threshold value for occupation numbers given. Defaulting to  0.0000E+00.
  No accuracy for fermi level given. Defaulting to  0.1000E-19.
  Maximum # of iterations to find E_F not set. Defaulting to  200.
  Will not use alltoall communication since running on < 1024 CPUs.
  partition_type (choice of integration weights) for integrals was not specified.
  | Using a version of the partition function of Stratmann and coworkers ('stratmann_sparse').
  | At each grid point, the set of atoms used to build the partition table is smoothly restricted to
  | only those atoms whose free-atom density would be non-zero at that grid point.
  Partitioning for Hartree potential was not defined. Using partition_type for integrals.
  | Adjusted default value of keyword multip_moments_threshold to:       0.10000000E-11
  | This value may affect high angular momentum components of the Hartree potential in periodic systems.
  No q(lm)/r^(l+1) cutoff set for long-range Hartree potential.
  | Using default value of  0.100000E-09 .
  | Verify using the multipole_threshold keyword.
  Defaulting to new monopole extrapolation.
  Density update method: automatic selection selected.
 * Warning: use_local_index and/or load_balancing needs packed_matrix_format = index
 * Changing the default setting to packed_matrix_format = index
------------------------------------------------------------


------------------------------------------------------------
          Reading geometry description geometry.in.
------------------------------------------------------------
  Input structure read successfully.
  The structure contains      120 atoms,  and a total of        490.000 electrons.

  Input geometry:
  | No unit cell requested.
  | Atomic structure:
  |       Atom                x [A]            y [A]            z [A]
  |    1: Species H            38.14621900       43.61470100       46.23240400
  |    2: Species C            38.23447300       44.56599900       45.71101600
  |    3: Species C            37.17244800       44.98672600       44.91611300
  |    4: Species C            39.38837500       45.31951400       45.83870800
  |    5: Species C            35.97027200       44.10561400       44.80625800
  |    6: Species C            37.28923900       46.19890200       44.25219600
  |    7: Species H            40.20440400       44.95168200       46.45830500
  |    8: Species C            39.47713600       46.52824100       45.20802900
  |    9: Species C            35.54670800       43.54522000       43.61859300
  |   10: Species C            35.33492600       43.69557800       46.04093300
  |   11: Species H            36.47749200       46.55476700       43.62295500
  |   12: Species C            38.43068300       46.96793500       44.41108000
  |   13: Species H            40.35389900       47.16061400       45.34143800
  |   14: Species C            34.33674600       42.73997600       43.64148100
  |   15: Species C            36.26458700       43.58436100       42.32089600
  |   16: Species C            34.66687800       42.42236200       46.04059600
  |   17: Species C            35.36918500       44.44288500       47.24290000
  |   18: Species H            38.49468700       47.93691100       43.91815700
  |   19: Species C            34.01440100       42.05543300       44.80218900
  |   20: Species C            33.48494600       42.78825600       42.42506900
  |   21: Species C            35.54203600       43.29347300       41.13894800
  |   22: Species C            37.65051500       43.72971900       42.22380200
  |   23: Species C            34.67466400       41.68471100       47.25498100
  |   24: Species C            35.08421300       43.79006900       48.46236700
  |   25: Species C            35.63547000       45.90629000       47.18127400
  |   26: Species C            32.95549000       41.01396200       44.77695100
  |   27: Species C            32.09434700       42.67790200       42.46348400
  |   28: Species C            34.09070500       43.13139000       41.19847900
  |   29: Species C            36.23344300       43.15725400       39.93795600
  |   30: Species C            38.30454800       43.59350000       41.01038900
  |   31: Species H            38.23425400       43.92691100       43.11578400
  |   32: Species C            34.28380100       40.24941200       47.31272600
  |   33: Species C            35.07175500       42.34166500       48.44576000
  |   34: Species C            34.74473900       44.41943500       49.72548400
  |   35: Species C            34.88956000       46.69032500       46.30050100
  |   36: Species C            36.59783300       46.52824100       47.97011700
  |   37: Species C            31.84830600       41.06741500       45.58669500
  |   38: Species C            33.04736700       39.95697200       43.87111000
  |   39: Species H            31.60426300       42.44501400       43.40460100
  |   40: Species C            31.31573600       42.88826500       41.34892500
  |   41: Species C            33.26693500       43.34002900       40.06960300
  |   42: Species H            35.67283200       42.86830100       39.05106400
  |   43: Species C            37.59289800       43.30554300       39.86568700
  |   44: Species H            39.39089600       43.67403100       40.97642700
  |   45: Species C            33.31520900       39.81558000       48.21299200
  |   46: Species C            34.88488900       39.31036300       46.48483100
  |   47: Species C            35.51244900       41.66919200       49.65288600
  |   48: Species C            34.24331300       45.81783400       49.82804200
  |   49: Species C            34.80079900       43.64867700       50.87259200
  |   50: Species H            34.13668600       46.20439500       45.68251100
  |   51: Species C            35.08577000       48.05768700       46.20648700
  |   52: Species H            37.21164100       45.93197800       48.64542900
  |   53: Species C            36.79092800       47.89905200       47.88800500
  |   54: Species C            30.84856900       40.10871000       45.48599800
  |   55: Species H            31.74798500       41.86996900       46.31656600
  |   56: Species C            32.09434700       38.99654300       43.73873300
  |   57: Species H            33.93984200       39.91083100       43.24691000
  |   58: Species H            30.23066500       42.82702900       41.43149600
  |   59: Species C            31.90125100       43.22277700       40.14743500
  |   60: Species H            33.72810700       43.68175700       39.14498400
  |   61: Species H            38.11424400       43.17308300       38.91842900
  |   62: Species C            32.96639100       38.48098000       48.30005800
  |   63: Species H            32.81943000       40.54841800       48.85172300
  |   64: Species C            34.52361300       37.96714200       46.57207400
  |   65: Species H            35.65324400       39.62782400       45.78233600
  |   66: Species C            36.07772100       40.28458700       49.62987400
  |   67: Species C            35.51867800       42.38822100       50.83883300
  |   68: Species C            33.17661600       46.28339200       49.06513200
  |   69: Species C            34.75875400       46.65928700       50.82320300
  |   70: Species C            34.09693400       43.92628800       52.14710200
  |   71: Species H            34.49806000       48.64818700       45.50541800
  |   72: Species C            36.03411800       48.66118800       47.01213100
  |   73: Species H            37.54112100       48.37555700       48.52015800
  |   74: Species H            29.97589900       40.15432800       46.13459500
  |   75: Species C            30.97470400       39.09655100       44.53916700
  |   76: Species H            32.21551900       38.17835900       43.02961100
  |   77: Species H            31.28373200       43.41380400       39.27009700
  |   78: Species H            32.20409900       38.16567600       49.01254900
  |   79: Species C            33.56747900       37.56883100       47.48876500
  |   80: Species H            35.00666500       37.23968400       45.92097300
  |   81: Species C            35.63079800       39.33967600       50.55719200
  |   82: Species C            37.13663200       39.94490200       48.80257400
  |   83: Species C            36.27704500       42.05888200       52.05694100
  |   84: Species H            32.75528500       45.66389200       48.27445400
  |   85: Species C            32.60978700       47.51970800       49.33409300
  |   86: Species C            34.18258100       47.89387900       51.08135000
  |   87: Species H            35.61005700       46.31824900       51.41318700
  |   88: Species C            32.86828600       44.60910700       52.19470400
  |   89: Species C            34.57655900       43.32623500       53.33032000
  |   90: Species H            36.19162700       49.73666000       46.95354100
  |   91: Species H            30.17781400       38.36029400       44.44590200
  |   92: Species H            33.29459000       36.51628300       47.56504100
  |   93: Species H            34.78716700       39.58853200       51.20026000
  |   94: Species C            36.25213000       38.10336000       50.66327900
  |   95: Species C            37.76886400       38.71893200       48.93769600
  |   96: Species H            37.49105700       40.65018700       48.05131400
  |   97: Species C            35.84725200       42.58996300       53.28412600
  |   98: Species C            37.51192200       41.37778700       52.03004800
  |   99: Species H            31.76286900       47.85952900       48.74126700
  |  100: Species C            33.09719800       48.30770900       50.35610700
  |  101: Species H            34.58644500       48.53229200       51.86740600
  |  102: Species H            32.45995800       45.05700400       51.29362800
  |  103: Species C            32.14262100       44.68497500       53.36717600
  |  104: Species C            33.81819100       43.42279500       54.49632500
  |  105: Species H            35.88435300       37.36884300       51.38080600
  |  106: Species C            37.33439900       37.81023100       49.87249900
  |  107: Species H            38.62209100       38.48820300       48.30142100
  |  108: Species C            36.65077800       42.42615500       54.42496600
  |  109: Species H            37.88253100       40.97993300       51.09019300
  |  110: Species C            38.27807500       41.23294700       53.15627800
  |  111: Species H            32.61876400       49.25882800       50.57890800
  |  112: Species H            31.18174500       45.19827200       53.36624800
  |  113: Species C            32.61913000       44.09182000       54.52435000
  |  114: Species H            34.17382500       42.92121300       55.39506300
  |  115: Species H            37.84019800       36.85179300       49.97952700
  |  116: Species H            36.32957600       42.87418600       55.36188600
  |  117: Species C            37.84672500       41.75195800       54.36597200
  |  118: Species H            39.23636500       40.72185000       53.08754200
  |  119: Species H            32.03548000       44.13848300       55.44254800
  |  120: Species H            38.46720200       41.66212200       55.25769300
  |

  | The smallest distance between any two atoms is         1.08409769 AA.
  |
  | The first atom of this pair is atom number                     22 .
  | The second atom of this pair is atom number                    31 .

  Number of empty states per atom not set in control.in - providing a guess from actual geometry.
  | Total number of empty states used during s.c.f. cycle:      291
  If you use a very high smearing, use empty_states (per atom!) in control.in to increase this value.

  Structure-dependent array size parameters: 
  | Maximum number of distinct radial functions  :       18
  | Maximum number of basis functions            :     3576
  | Number of Kohn-Sham states (occupied + empty):      536
------------------------------------------------------------

------------------------------------------------------------
          Preparing all fixed parts of the calculation.
------------------------------------------------------------
  Determining machine precision:
    2.225073858507201E-308
  Setting up grids for atomic and cluster calculations.

  Creating wave function, potential, and density for free atoms.

  Species: H

  List of occupied orbitals and eigenvalues:
    n    l              occ      energy [Ha]    energy [eV]
    1    0           1.0000        -0.238386        -6.4868


  Species: C

  List of occupied orbitals and eigenvalues:
    n    l              occ      energy [Ha]    energy [eV]
    1    0           2.0000       -10.049212      -273.4530
    2    0           2.0000        -0.504761       -13.7352
    2    1           2.0000        -0.193631        -5.2690

  Creating fixed part of basis set: Ionic, confined, hydrogenic.
 
  H                    hydrogenic:
 
  List of hydrogenic basis orbitals: 
    n    l      effective z      eigenvalue [eV]  inner max. [A]     outer max. [A]     outer radius [A]   
    2    0         2.100000       -14.9965           0.193243           1.317208           5.373006
    2    1         3.500000       -41.6672           0.602369           0.602369           4.056063
    1    0         0.850000        -9.8292           0.624871           0.624871           5.373006
    2    1         3.700000       -46.5653           0.573622           0.573622           3.910002
    2    0         1.200000        -4.5995           0.334980           2.228188           5.505995
    3    2         7.000000       -74.0753           0.680699           0.680699           3.769201
 
 
  C                    hydrogenic:
 
  List of hydrogenic basis orbitals: 
    n    l      effective z      eigenvalue [eV]  inner max. [A]     outer max. [A]     outer radius [A]   
    2    1         1.700000        -9.8152           1.245706           1.245706           5.401630
    3    2         6.000000       -54.4226           0.792453           0.792453           4.178599
    2    0         4.900000       -81.6681           0.082559           0.562749           3.353238
    4    3         9.800000       -81.6681           0.863254           0.863254           4.028125
    3    1         5.200000       -40.8774           0.305389           1.215618           4.898362
    3    0         4.300000       -27.9508           0.091041           1.610311           5.401630
    5    4        14.400000      -112.8510           0.917666           0.917666           3.883070
    3    2         6.200000       -58.1113           0.763917           0.763917           4.077671
 

  Adding cutoff potential to free-atom effective potential.
  Creating atomic-like basis functions for current effective potential.

  Species H                   :

  List of atomic basis orbitals and eigenvalues:
    n    l      energy [Ha]    energy [eV]    outer radius [A]
    1    0        -0.238386        -6.4868       5.373006


  Species C                   :

  List of atomic basis orbitals and eigenvalues:
    n    l      energy [Ha]    energy [eV]    outer radius [A]
    1    0       -10.049212      -273.4530       1.934409
    2    0        -0.504761       -13.7352       5.271162
    2    1        -0.193631        -5.2690       5.401630

  Assembling full basis from fixed parts.
  | Species H :   atomic orbital   1 s accepted.
  | Species H :    hydro orbital   2 s accepted.
  | Species H :    hydro orbital   1 s accepted.
  | Species H :    hydro orbital   2 s accepted.
  | Species H :    hydro orbital   2 p accepted.
  | Species H :    hydro orbital   2 p accepted.
  | Species H :    hydro orbital   3 d accepted.
  | Species C :   atomic orbital   1 s accepted.
  | Species C :    hydro orbital   2 s accepted.
  | Species C :   atomic orbital   2 s accepted.
  | Species C :    hydro orbital   3 s accepted.
  | Species C :    hydro orbital   3 p accepted.
  | Species C :   atomic orbital   2 p accepted.
  | Species C :    hydro orbital   2 p accepted.
  | Species C :    hydro orbital   3 d accepted.
  | Species C :    hydro orbital   3 d accepted.
  | Species C :    hydro orbital   4 f accepted.
  | Species C :    hydro orbital   5 g accepted.
 
  Basis size parameters after reduction:
  | Total number of radial functions:       18
  | Total number of basis functions :     3576
 
  Per-task memory consumption for arrays in subroutine allocate_ext:
  |           4.495576MB.
  Testing on-site integration grid accuracy.
  |  Species  Function  <phi|h_atom|phi> (log., in eV)  <phi|h_atom|phi> (rad., in eV)
           1        1                 -6.4870767962                 -6.4871688290
           1        2                 13.5032046589                 13.5028982997
           1        3                 32.8195184817                 32.8119941656
           1        4                 33.8513856511                 33.7670005767 ***
           1        5                 28.8544614965                 28.8544615203
           1        6                 59.6326952547                 59.6327656460
           1        7                 60.2719308513                 60.2719305949
           2        8               -273.4529726040               -273.4529710464
           2        9                -10.7721037319                -10.7721022101
           2       10                 17.6044132601                 17.6044162063
           2       11                 53.7706460658                 53.7706913770
           2       12                 15.0973290362                 15.0973256030
           2       13                  3.8545134692                  3.8545724687
           2       14                 12.1156992592                 12.1182024431
           2       15                 29.4352039302                 29.4352041816
           2       16                 54.8741144708                 54.8740268729
           2       17                 59.3556032049                 59.3556031382
           2       18                 93.4551837154                 93.4551838009
 * Note: Onsite integrals marked "***" above are less accurate than
 * onsite_accuracy_threshold =    0.03000 eV. Usually, this is harmless.
 * When in doubt, tighten the "radial" and/or "radial_multiplier" flags to check.

  Preparing densities etc. for the partition functions (integrals / Hartree potential).

  Preparations completed.
  max(cpu_time)          :      0.192 s.
  Wall clock time (cpu1) :      0.185 s.
------------------------------------------------------------

------------------------------------------------------------
          Begin self-consistency loop: Initialization.

          Date     :  20210727, Time     :  230637.124
------------------------------------------------------------

  Initializing index lists of integration centers etc. from given atomic structure:
  | Number of centers in hartree potential         :       120
  | Number of centers in hartree multipole         :       120
  | Number of centers in electron density summation:       120
  | Number of centers in basis integrals           :       120
  | Number of centers in integrals                 :       120
  | Number of centers in hamiltonian               :       120
  * Using 56 tasks for Scalapack Eigenvalue solver.
  Detailed listing of tasks and assigned k-points:
  (for non-periodic systems, the "k-point" denotes an internal label only)
   Task     0 k-point     1 on d032
   Task     1 k-point     1 on d032
   Task     2 k-point     1 on d032
   Task     3 k-point     1 on d032
   Task     4 k-point     1 on d032
   Task     5 k-point     1 on d032
   Task     6 k-point     1 on d032
   Task     7 k-point     1 on d032
   Task     8 k-point     1 on d032
   Task     9 k-point     1 on d032
   Task    10 k-point     1 on d032
   Task    11 k-point     1 on d032
   Task    12 k-point     1 on d032
   Task    13 k-point     1 on d032
   Task    14 k-point     1 on d032
   Task    15 k-point     1 on d032
   Task    16 k-point     1 on d032
   Task    17 k-point     1 on d032
   Task    18 k-point     1 on d032
   Task    19 k-point     1 on d032
   Task    20 k-point     1 on d032
   Task    21 k-point     1 on d032
   Task    22 k-point     1 on d032
   Task    23 k-point     1 on d032
   Task    24 k-point     1 on d032
   Task    25 k-point     1 on d032
   Task    26 k-point     1 on d032
   Task    27 k-point     1 on d032
   Task    28 k-point     1 on d032
   Task    29 k-point     1 on d032
   Task    30 k-point     1 on d032
   Task    31 k-point     1 on d032
   Task    32 k-point     1 on d032
   Task    33 k-point     1 on d032
   Task    34 k-point     1 on d032
   Task    35 k-point     1 on d032
   Task    36 k-point     1 on d032
   Task    37 k-point     1 on d032
   Task    38 k-point     1 on d032
   Task    39 k-point     1 on d032
   Task    40 k-point     1 on d032
   Task    41 k-point     1 on d032
   Task    42 k-point     1 on d032
   Task    43 k-point     1 on d032
   Task    44 k-point     1 on d032
   Task    45 k-point     1 on d032
   Task    46 k-point     1 on d032
   Task    47 k-point     1 on d032
   Task    48 k-point     1 on d032
   Task    49 k-point     1 on d032
   Task    50 k-point     1 on d032
   Task    51 k-point     1 on d032
   Task    52 k-point     1 on d032
   Task    53 k-point     1 on d032
   Task    54 k-point     1 on d032
   Task    55 k-point     1 on d032
  Tasks:    56 split into      8 X      7 BLACS grid
  Calculating block size based on n_basis =         3576 max_nprow =            8 max_npcol =            7
  ScaLAPACK block size set to:           16
  Allocating        1.835 MB for ovlp
  Allocating        1.835 MB for ham
  Allocating        1.835 MB for eigenvec
  Required Scalapack workspace - INTEGER:            1 REAL:             1
  Partitioning the integration grid into batches with parallel hashing+maxmin method.
  | Number of batches:    17427
  | Maximal batch size:     200
  | Minimal batch size:       2
  | Average batch size:     114.906
  | Standard deviation of batch sizes:      36.839

  Integration load balanced across     56 MPI tasks.
  Work distribution over tasks is as follows:
  Task      0 has      35917 integration points.
  Task      1 has      35872 integration points.
  Task      2 has      35593 integration points.
  Task      3 has      35923 integration points.
  Task      4 has      35612 integration points.
  Task      5 has      35743 integration points.
  Task      6 has      35705 integration points.
  Task      7 has      35812 integration points.
  Task      8 has      35781 integration points.
  Task      9 has      35735 integration points.
  Task     10 has      35816 integration points.
  Task     11 has      35719 integration points.
  Task     12 has      35750 integration points.
  Task     13 has      35696 integration points.
  Task     14 has      35835 integration points.
  Task     15 has      35874 integration points.
  Task     16 has      35660 integration points.
  Task     17 has      35827 integration points.
  Task     18 has      35766 integration points.
  Task     19 has      35813 integration points.
  Task     20 has      35585 integration points.
  Task     21 has      35919 integration points.
  Task     22 has      35742 integration points.
  Task     23 has      35691 integration points.
  Task     24 has      35834 integration points.
  Task     25 has      35710 integration points.
  Task     26 has      35688 integration points.
  Task     27 has      35648 integration points.
  Task     28 has      35854 integration points.
  Task     29 has      35799 integration points.
  Task     30 has      35717 integration points.
  Task     31 has      35903 integration points.
  Task     32 has      35816 integration points.
  Task     33 has      35725 integration points.
  Task     34 has      35657 integration points.
  Task     35 has      35916 integration points.
  Task     36 has      35749 integration points.
  Task     37 has      35679 integration points.
  Task     38 has      35892 integration points.
  Task     39 has      35703 integration points.
  Task     40 has      35739 integration points.
  Task     41 has      35586 integration points.
  Task     42 has      35842 integration points.
  Task     43 has      35773 integration points.
  Task     44 has      35704 integration points.
  Task     45 has      35835 integration points.
  Task     46 has      35662 integration points.
  Task     47 has      35750 integration points.
  Task     48 has      35738 integration points.
  Task     49 has      35796 integration points.
  Task     50 has      35803 integration points.
  Task     51 has      35628 integration points.
  Task     52 has      35780 integration points.
  Task     53 has      35735 integration points.
  Task     54 has      35823 integration points.
  Task     55 has      35602 integration points.
  Initializing partition tables, free-atom densities, potentials, etc. across the integration grid (initialize_grid_storage).
  | initialize_grid_storage: Actual outermost partition radius vs. multipole_radius_free
  | (-- VB: in principle, multipole_radius_free should be larger, hence this output)
  | Species        1: Confinement radius =              6.000000000000000 AA, multipole_radius_free =              6.071692442739658 AA.
  | Species        1: outer_partition_radius set to              6.071692442739658 AA .
  | Species        2: Confinement radius =              6.000000000000000 AA, multipole_radius_free =              6.029870734432609 AA.
  | Species        2: outer_partition_radius set to              6.029870734432609 AA .
  | The sparse table of interatomic distances needs    170.0680 kbyte instead of   115.2000 kbyte of memory.
  | Using the partition_type stratmann_smoother will reduce your memory usage.
  | Net number of integration points:  2002472
  | of which are non-zero points    :  1535885
  Renormalizing the initial density to the exact electron count on the 3D integration grid.
  | Initial density: Formal number of electrons (from input files) :     490.0000000000
  | Integrated number of electrons on 3D grid     :     490.0002121020
  | Charge integration error                      :       0.0002121020
  | Normalization factor for density and gradient :       0.9999995671
  Obtaining max. number of non-zero basis functions in each batch (get_n_compute_maxes).
  | Maximal number of non-zero basis functions:     1453
  Selecting the method for density update.
  Loop over occupied states selected for charge density update.
  Hamiltonian matrix size:
  | Size of matrix non-packed:               6395676
  | Size of matrix packed:         4580370
  Allocating       15.334 MB for KS_eigenvector
  use_local_index: Max. local matrix size =      2723265
  Task:     0 matrix size:     711267
  Task:     1 matrix size:     542944
  Task:     2 matrix size:     932132
  Task:     3 matrix size:     493210
  Task:     4 matrix size:    1028832
  Task:     5 matrix size:    1080865
  Task:     6 matrix size:    1991273
  Task:     7 matrix size:    1305013
  Task:     8 matrix size:    1217466
  Task:     9 matrix size:    1037226
  Task:    10 matrix size:    1433471
  Task:    11 matrix size:    1566304
  Task:    12 matrix size:    2542669
  Task:    13 matrix size:    2723265
  Task:    14 matrix size:     716639
  Task:    15 matrix size:    1160138
  Task:    16 matrix size:    1290464
  Task:    17 matrix size:    2581264
  Task:    18 matrix size:    2526525
  Task:    19 matrix size:    1340444
  Task:    20 matrix size:    1335231
  Task:    21 matrix size:     890651
  Task:    22 matrix size:     901759
  Task:    23 matrix size:     826129
  Task:    24 matrix size:    1926310
  Task:    25 matrix size:    1044974
  Task:    26 matrix size:    1024674
  Task:    27 matrix size:     514643
  Task:    28 matrix size:     702867
  Task:    29 matrix size:    1764315
  Task:    30 matrix size:    2333619
  Task:    31 matrix size:    1082627
  Task:    32 matrix size:    2048078
  Task:    33 matrix size:    1025089
  Task:    34 matrix size:    1138956
  Task:    35 matrix size:     507150
  Task:    36 matrix size:    2153547
  Task:    37 matrix size:    1564691
  Task:    38 matrix size:     705825
  Task:    39 matrix size:     840395
  Task:    40 matrix size:    1118664
  Task:    41 matrix size:     382500
  Task:    42 matrix size:    2323361
  Task:    43 matrix size:    1036036
  Task:    44 matrix size:     528731
  Task:    45 matrix size:    1147053
  Task:    46 matrix size:     387333
  Task:    47 matrix size:     821853
  Task:    48 matrix size:     586842
  Task:    49 matrix size:    2511962
  Task:    50 matrix size:    1376116
  Task:    51 matrix size:    1098165
  Task:    52 matrix size:    1972258
  Task:    53 matrix size:     788865
  Task:    54 matrix size:    1479343
  Task:    55 matrix size:    1007680
  Integrating Hamiltonian matrix: batch-based integration.
  Time summed over all CPUs for integration: real work      628.095 s, elapsed     1292.197 s
  Time get_set_sparse_local_matrix_scalapack:     0.061079 s
  Start compute_balanced_batch_distribution
  Done load balancing, time needed:      0.022 s
  Integrating overlap matrix with loadbalancing
  Time summed over all CPUs for integration: real work      189.492 s, elapsed      225.802 s
  Time get_set_full_local_matrix_scalapack:     0.072268 s

  Updating Kohn-Sham eigenvalues and eigenvectors using ELSI and the ELPA eigensolver.
  Overlap matrix is not singular
  | Lowest and highest eigenvalues :  0.15E+02,  0.87E-04
  Finished singularity check of overlap matrix
  | Time :     0.498 s
  Finished Cholesky decomposition
  | Time :     0.122 s
  Finished transformation to standard eigenproblem
  | Time :     0.166 s
  Starting ELPA eigensolver
  Finished solving standard eigenproblem
  | Time :     0.572 s
  Finished back-transformation of eigenvectors
  | Time :     0.029 s

  Obtaining occupation numbers and chemical potential using ELSI.
  | Chemical potential (Fermi level):    -8.54352987 eV
  Writing Kohn-Sham eigenvalues.

  State    Occupation    Eigenvalue [Ha]    Eigenvalue [eV]
      1       2.00000         -10.177447         -276.94243
      2       2.00000         -10.177163         -276.93470
      3       2.00000         -10.176597         -276.91928
      4       2.00000         -10.176482         -276.91616
      5       2.00000         -10.176228         -276.90925
      6       2.00000         -10.176089         -276.90548
      7       2.00000         -10.175960         -276.90196
      8       2.00000         -10.175947         -276.90161
      9       2.00000         -10.175590         -276.89190
     10       2.00000         -10.175233         -276.88219
     11       2.00000         -10.175134         -276.87949
     12       2.00000         -10.175018         -276.87634
     13       2.00000         -10.174648         -276.86627
     14       2.00000         -10.174559         -276.86384
     15       2.00000         -10.174442         -276.86067
     16       2.00000         -10.174401         -276.85955
     17       2.00000         -10.174295         -276.85665
     18       2.00000         -10.174041         -276.84975
     19       2.00000         -10.174037         -276.84964
     20       2.00000         -10.173558         -276.83659
     21       2.00000         -10.173475         -276.83435
     22       2.00000         -10.173266         -276.82865
     23       2.00000         -10.173137         -276.82515
     24       2.00000         -10.173136         -276.82512
     25       2.00000         -10.173134         -276.82507
     26       2.00000         -10.172948         -276.82000
     27       2.00000         -10.172698         -276.81319
     28       2.00000         -10.172661         -276.81218
     29       2.00000         -10.172588         -276.81022
     30       2.00000         -10.172535         -276.80876
     31       2.00000         -10.172349         -276.80369
     32       2.00000         -10.172271         -276.80159
     33       2.00000         -10.172015         -276.79460
     34       2.00000         -10.171994         -276.79403
     35       2.00000         -10.171793         -276.78856
     36       2.00000         -10.171783         -276.78829
     37       2.00000         -10.171754         -276.78752
     38       2.00000         -10.171653         -276.78477
     39       2.00000         -10.171632         -276.78419
     40       2.00000         -10.171443         -276.77905
     41       2.00000         -10.171132         -276.77058
     42       2.00000         -10.171077         -276.76908
     43       2.00000         -10.170790         -276.76127
     44       2.00000         -10.170788         -276.76122
     45       2.00000         -10.170698         -276.75878
     46       2.00000         -10.170286         -276.74756
     47       2.00000         -10.169413         -276.72380
     48       2.00000         -10.166732         -276.65085
     49       2.00000         -10.166623         -276.64790
     50       2.00000         -10.165750         -276.62413
     51       2.00000         -10.165664         -276.62178
     52       2.00000         -10.165304         -276.61199
     53       2.00000         -10.164824         -276.59892
     54       2.00000         -10.164801         -276.59830
     55       2.00000         -10.164118         -276.57972
     56       2.00000         -10.163081         -276.55150
     57       2.00000         -10.162880         -276.54604
     58       2.00000         -10.162641         -276.53952
     59       2.00000         -10.161919         -276.51988
     60       2.00000         -10.161593         -276.51101
     61       2.00000         -10.161143         -276.49877
     62       2.00000         -10.160428         -276.47931
     63       2.00000         -10.160000         -276.46768
     64       2.00000         -10.159885         -276.46454
     65       2.00000         -10.159648         -276.45810
     66       2.00000         -10.159303         -276.44871
     67       2.00000         -10.159298         -276.44858
     68       2.00000         -10.159079         -276.44261
     69       2.00000         -10.158993         -276.44026
     70       2.00000         -10.158858         -276.43659
     71       2.00000         -10.158680         -276.43175
     72       2.00000         -10.158459         -276.42572
     73       2.00000         -10.157578         -276.40176
     74       2.00000         -10.157502         -276.39969
     75       2.00000          -1.022656          -27.82790
     76       2.00000          -1.017287          -27.68178
     77       2.00000          -1.009411          -27.46748
     78       2.00000          -1.007617          -27.41865
     79       2.00000          -1.004850          -27.34336
     80       2.00000          -1.003067          -27.29485
     81       2.00000          -1.001012          -27.23892
     82       2.00000          -0.998514          -27.17094
     83       2.00000          -0.991662          -26.98450
     84       2.00000          -0.991379          -26.97679
     85       2.00000          -0.989902          -26.93661
     86       2.00000          -0.977426          -26.59710
     87       2.00000          -0.950967          -25.87712
     88       2.00000          -0.937271          -25.50445
     89       2.00000          -0.926560          -25.21297
     90       2.00000          -0.924323          -25.15211
     91       2.00000          -0.917523          -24.96708
     92       2.00000          -0.911099          -24.79226
     93       2.00000          -0.902857          -24.56799
     94       2.00000          -0.898673          -24.45413
     95       2.00000          -0.896068          -24.38324
     96       2.00000          -0.894742          -24.34718
     97       2.00000          -0.892584          -24.28844
     98       2.00000          -0.889803          -24.21278
     99       2.00000          -0.889012          -24.19124
    100       2.00000          -0.888724          -24.18342
    101       2.00000          -0.887956          -24.16252
    102       2.00000          -0.886865          -24.13281
    103       2.00000          -0.886450          -24.12154
    104       2.00000          -0.885116          -24.08523
    105       2.00000          -0.877279          -23.87198
    106       2.00000          -0.868398          -23.63032
    107       2.00000          -0.867060          -23.59390
    108       2.00000          -0.862008          -23.45644
    109       2.00000          -0.854089          -23.24094
    110       2.00000          -0.850788          -23.15111
    111       2.00000          -0.831711          -22.63201
    112       2.00000          -0.802980          -21.85020
    113       2.00000          -0.782347          -21.28874
    114       2.00000          -0.777768          -21.16415
    115       2.00000          -0.775190          -21.09400
    116       2.00000          -0.771804          -21.00185
    117       2.00000          -0.769706          -20.94478
    118       2.00000          -0.760415          -20.69195
    119       2.00000          -0.757882          -20.62303
    120       2.00000          -0.756286          -20.57958
    121       2.00000          -0.754385          -20.52786
    122       2.00000          -0.752861          -20.48638
    123       2.00000          -0.751989          -20.46266
    124       2.00000          -0.749967          -20.40765
    125       2.00000          -0.748808          -20.37611
    126       2.00000          -0.748228          -20.36033
    127       2.00000          -0.744855          -20.26855
    128       2.00000          -0.743349          -20.22756
    129       2.00000          -0.733912          -19.97076
    130       2.00000          -0.731003          -19.89161
    131       2.00000          -0.730140          -19.86812
    132       2.00000          -0.725770          -19.74921
    133       2.00000          -0.712757          -19.39512
    134       2.00000          -0.706399          -19.22210
    135       2.00000          -0.702583          -19.11826
    136       2.00000          -0.681487          -18.54421
    137       2.00000          -0.677705          -18.44128
    138       2.00000          -0.677635          -18.43939
    139       2.00000          -0.664551          -18.08335
    140       2.00000          -0.663091          -18.04362
    141       2.00000          -0.662273          -18.02136
    142       2.00000          -0.658037          -17.90611
    143       2.00000          -0.654238          -17.80272
    144       2.00000          -0.653836          -17.79179
    145       2.00000          -0.645500          -17.56494
    146       2.00000          -0.643869          -17.52058
    147       2.00000          -0.638459          -17.37334
    148       2.00000          -0.637468          -17.34638
    149       2.00000          -0.637340          -17.34290
    150       2.00000          -0.636362          -17.31630
    151       2.00000          -0.635131          -17.28278
    152       2.00000          -0.634331          -17.26103
    153       2.00000          -0.629352          -17.12554
    154       2.00000          -0.624370          -16.98998
    155       2.00000          -0.623531          -16.96715
    156       2.00000          -0.617518          -16.80351
    157       2.00000          -0.614321          -16.71653
    158       2.00000          -0.613944          -16.70626
    159       2.00000          -0.611198          -16.63155
    160       2.00000          -0.604127          -16.43915
    161       2.00000          -0.598841          -16.29530
    162       2.00000          -0.593038          -16.13739
    163       2.00000          -0.592169          -16.11373
    164       2.00000          -0.587009          -15.97333
    165       2.00000          -0.586543          -15.96065
    166       2.00000          -0.583535          -15.87878
    167       2.00000          -0.578670          -15.74641
    168       2.00000          -0.578004          -15.72829
    169       2.00000          -0.577527          -15.71532
    170       2.00000          -0.576544          -15.68856
    171       2.00000          -0.575690          -15.66532
    172       2.00000          -0.574414          -15.63059
    173       2.00000          -0.573300          -15.60028
    174       2.00000          -0.572545          -15.57974
    175       2.00000          -0.572030          -15.56572
    176       2.00000          -0.571053          -15.53914
    177       2.00000          -0.568849          -15.47917
    178       2.00000          -0.568511          -15.46997
    179       2.00000          -0.567114          -15.43194
    180       2.00000          -0.566830          -15.42422
    181       2.00000          -0.566285          -15.40940
    182       2.00000          -0.565146          -15.37839
    183       2.00000          -0.564877          -15.37109
    184       2.00000          -0.563658          -15.33791
    185       2.00000          -0.562191          -15.29798
    186       2.00000          -0.554314          -15.08366
    187       2.00000          -0.543276          -14.78330
    188       2.00000          -0.534106          -14.53376
    189       2.00000          -0.528862          -14.39107
    190       2.00000          -0.528626          -14.38464
    191       2.00000          -0.525497          -14.29951
    192       2.00000          -0.523182          -14.23651
    193       2.00000          -0.519998          -14.14985
    194       2.00000          -0.518838          -14.11831
    195       2.00000          -0.516496          -14.05457
    196       2.00000          -0.514545          -14.00149
    197       2.00000          -0.513170          -13.96407
    198       2.00000          -0.511492          -13.91839
    199       2.00000          -0.507441          -13.80817
    200       2.00000          -0.507120          -13.79944
    201       2.00000          -0.506504          -13.78267
    202       2.00000          -0.505567          -13.75718
    203       2.00000          -0.502231          -13.66640
    204       2.00000          -0.501714          -13.65232
    205       2.00000          -0.500128          -13.60917
    206       2.00000          -0.498419          -13.56266
    207       2.00000          -0.498189          -13.55640
    208       2.00000          -0.498085          -13.55358
    209       2.00000          -0.497707          -13.54329
    210       2.00000          -0.497147          -13.52805
    211       2.00000          -0.496819          -13.51913
    212       2.00000          -0.496302          -13.50508
    213       2.00000          -0.495749          -13.49003
    214       2.00000          -0.493171          -13.41986
    215       2.00000          -0.492271          -13.39537
    216       2.00000          -0.490741          -13.35374
    217       2.00000          -0.488054          -13.28061
    218       2.00000          -0.479913          -13.05911
    219       2.00000          -0.477134          -12.98349
    220       2.00000          -0.473134          -12.87464
    221       2.00000          -0.452201          -12.30503
    222       2.00000          -0.431254          -11.73502
    223       2.00000          -0.429165          -11.67818
    224       2.00000          -0.426875          -11.61585
    225       2.00000          -0.425892          -11.58912
    226       2.00000          -0.423572          -11.52597
    227       2.00000          -0.422909          -11.50793
    228       2.00000          -0.421662          -11.47401
    229       2.00000          -0.418684          -11.39297
    230       2.00000          -0.412655          -11.22892
    231       2.00000          -0.412600          -11.22742
    232       2.00000          -0.407991          -11.10200
    233       2.00000          -0.406137          -11.05155
    234       2.00000          -0.404102          -10.99617
    235       2.00000          -0.401260          -10.91885
    236       2.00000          -0.396082          -10.77795
    237       2.00000          -0.393870          -10.71775
    238       2.00000          -0.389419          -10.59662
    239       2.00000          -0.384489          -10.46249
    240       2.00000          -0.383808          -10.44394
    241       2.00000          -0.380710          -10.35964
    242       2.00000          -0.380370          -10.35040
    243       2.00000          -0.367162           -9.99100
    244       2.00000          -0.359725           -9.78861
    245       2.00000          -0.338424           -9.20897
    246       0.00000          -0.277615           -7.55429
    247       0.00000          -0.251042           -6.83119
    248       0.00000          -0.245640           -6.68421
    249       0.00000          -0.234711           -6.38682
    250       0.00000          -0.232766           -6.33388
    251       0.00000          -0.231163           -6.29028
    252       0.00000          -0.225922           -6.14766
    253       0.00000          -0.220960           -6.01263
    254       0.00000          -0.219974           -5.98579
    255       0.00000          -0.217133           -5.90849
    256       0.00000          -0.216500           -5.89127
    257       0.00000          -0.212244           -5.77546
    258       0.00000          -0.209413           -5.69843
    259       0.00000          -0.208239           -5.66648
    260       0.00000          -0.206248           -5.61228
    261       0.00000          -0.203980           -5.55058
    262       0.00000          -0.200635           -5.45955
    263       0.00000          -0.197542           -5.37538
    264       0.00000          -0.196319           -5.34211
    265       0.00000          -0.188587           -5.13171
    266       0.00000          -0.178854           -4.86687
    267       0.00000          -0.174636           -4.75208
    268       0.00000          -0.165339           -4.49911
    269       0.00000          -0.156838           -4.26777
    270       0.00000          -0.145939           -3.97120
    271       0.00000          -0.120552           -3.28039
    272       0.00000          -0.093571           -2.54620
    273       0.00000          -0.089877           -2.44567
    274       0.00000          -0.081851           -2.22728
    275       0.00000          -0.079240           -2.15624
    276       0.00000          -0.077528           -2.10964
    277       0.00000          -0.077014           -2.09566
    278       0.00000          -0.074632           -2.03085
    279       0.00000          -0.074170           -2.01828
    280       0.00000          -0.071950           -1.95787
    281       0.00000          -0.070708           -1.92406
    282       0.00000          -0.067666           -1.84128
    283       0.00000          -0.065471           -1.78155
    284       0.00000          -0.064408           -1.75263
    285       0.00000          -0.062879           -1.71102
    286       0.00000          -0.062505           -1.70084
    287       0.00000          -0.059703           -1.62460
    288       0.00000          -0.059022           -1.60608
    289       0.00000          -0.057039           -1.55212
    290       0.00000          -0.054586           -1.48536
    291       0.00000          -0.054112           -1.47246
    292       0.00000          -0.053072           -1.44417
    293       0.00000          -0.051349           -1.39729
    294       0.00000          -0.048923           -1.33128
    295       0.00000          -0.042979           -1.16951
    296       0.00000          -0.041627           -1.13273
    297       0.00000          -0.040334           -1.09755
    298       0.00000          -0.034783           -0.94649
    299       0.00000          -0.033790           -0.91948
    300       0.00000          -0.032787           -0.89218
    301       0.00000          -0.028885           -0.78599
    302       0.00000          -0.026193           -0.71275
    303       0.00000          -0.024915           -0.67796
    304       0.00000          -0.023717           -0.64538
    305       0.00000          -0.023384           -0.63632
    306       0.00000          -0.022020           -0.59919
    307       0.00000          -0.020902           -0.56877
    308       0.00000          -0.019037           -0.51801
    309       0.00000          -0.018041           -0.49093
    310       0.00000          -0.017432           -0.47436
    311       0.00000          -0.016153           -0.43954
    312       0.00000          -0.014279           -0.38856
    313       0.00000          -0.012653           -0.34430
    314       0.00000          -0.012559           -0.34174
    315       0.00000          -0.009578           -0.26064
    316       0.00000          -0.007721           -0.21009
    317       0.00000          -0.006762           -0.18399
    318       0.00000          -0.004391           -0.11948
    319       0.00000          -0.003486           -0.09485
    320       0.00000           0.000385            0.01048
    321       0.00000           0.001764            0.04799
    322       0.00000           0.002454            0.06679
    323       0.00000           0.002584            0.07033
    324       0.00000           0.005364            0.14597
    325       0.00000           0.008333            0.22676
    326       0.00000           0.009266            0.25214
    327       0.00000           0.012051            0.32794
    328       0.00000           0.013299            0.36188
    329       0.00000           0.015461            0.42071
    330       0.00000           0.017002            0.46266
    331       0.00000           0.017601            0.47896
    332       0.00000           0.019262            0.52414
    333       0.00000           0.021656            0.58929
    334       0.00000           0.023668            0.64404
    335       0.00000           0.025569            0.69576
    336       0.00000           0.025853            0.70351
    337       0.00000           0.029232            0.79545
    338       0.00000           0.029841            0.81201
    339       0.00000           0.030759            0.83700
    340       0.00000           0.033055            0.89947
    341       0.00000           0.033709            0.91728
    342       0.00000           0.035006            0.95256
    343       0.00000           0.036409            0.99075
    344       0.00000           0.036462            0.99219
    345       0.00000           0.039611            1.07788
    346       0.00000           0.041985            1.14246
    347       0.00000           0.044491            1.21066
    348       0.00000           0.045382            1.23490
    349       0.00000           0.046446            1.26387
    350       0.00000           0.048940            1.33172
    351       0.00000           0.050124            1.36393
    352       0.00000           0.050939            1.38613
    353       0.00000           0.051589            1.40380
    354       0.00000           0.052497            1.42851
[...]
    366       0.00000           0.181097            4.92790
    367       0.00000           0.181996            4.95237
    368       0.00000           0.183182            4.98465
    369       0.00000           0.183901            5.00420
    370       0.00000           0.184790            5.02839
    371       0.00000           0.185847            5.05715
    372       0.00000           0.186007            5.06152
    373       0.00000           0.186938            5.08685
    374       0.00000           0.187284            5.09626
    375       0.00000           0.189235            5.14934
    376       0.00000           0.191680            5.21589
    377       0.00000           0.192362            5.23444
    378       0.00000           0.192775            5.24569
    379       0.00000           0.193933            5.27719
    380       0.00000           0.195097            5.30885
    381       0.00000           0.196096            5.33603
    382       0.00000           0.196411            5.34462
    383       0.00000           0.196995            5.36050
    384       0.00000           0.199173            5.41977
    385       0.00000           0.200466            5.45495
    386       0.00000           0.201779            5.49068
    387       0.00000           0.202996            5.52380
    388       0.00000           0.204698            5.57012
    389       0.00000           0.206172            5.61023
    390       0.00000           0.207846            5.65579
    391       0.00000           0.209885            5.71125
    392       0.00000           0.210396            5.72517
    393       0.00000           0.212255            5.77574
    394       0.00000           0.213346            5.80543
    395       0.00000           0.214092            5.82574
    396       0.00000           0.216421            5.88911
    397       0.00000           0.217389            5.91544
    398       0.00000           0.218846            5.95510
    399       0.00000           0.219322            5.96806
    400       0.00000           0.220278            5.99408
    401       0.00000           0.221772            6.03472
    402       0.00000           0.223250            6.07493
    403       0.00000           0.223749            6.08851
    404       0.00000           0.224592            6.11147
    405       0.00000           0.225006            6.12271
    406       0.00000           0.226044            6.15097
    407       0.00000           0.227706            6.19619
    408       0.00000           0.227878            6.20087
    409       0.00000           0.229441            6.24342
    410       0.00000           0.232134            6.31668
    411       0.00000           0.232272            6.32045
    412       0.00000           0.233400            6.35114
    413       0.00000           0.233905            6.36487
    414       0.00000           0.234526            6.38178
    415       0.00000           0.236730            6.44176
    416       0.00000           0.237094            6.45165
    417       0.00000           0.238983            6.50305
    418       0.00000           0.240641            6.54816
    419       0.00000           0.242381            6.59553
    420       0.00000           0.243108            6.61532
    421       0.00000           0.244309            6.64799
    422       0.00000           0.245730            6.68665
    423       0.00000           0.246816            6.71621
    424       0.00000           0.247995            6.74828
    425       0.00000           0.249019            6.77614
    426       0.00000           0.249971            6.80207
    427       0.00000           0.251795            6.85169
    428       0.00000           0.253368            6.89448
    429       0.00000           0.254957            6.93773
    430       0.00000           0.255250            6.94570
    431       0.00000           0.257341            7.00261
    432       0.00000           0.258011            7.02085
    433       0.00000           0.258145            7.02449
    434       0.00000           0.259019            7.04827
    435       0.00000           0.260700            7.09402
    436       0.00000           0.262669            7.14758
    437       0.00000           0.263589            7.17262
    438       0.00000           0.265944            7.23671
    439       0.00000           0.266939            7.26377
    440       0.00000           0.267475            7.27836
    441       0.00000           0.268519            7.30679
    442       0.00000           0.271016            7.37473
    443       0.00000           0.271743            7.39451
    444       0.00000           0.274312            7.46442
    445       0.00000           0.274825            7.47836
    446       0.00000           0.276492            7.52372
    447       0.00000           0.277206            7.54315
    448       0.00000           0.277616            7.55431
    449       0.00000           0.279128            7.59546
    450       0.00000           0.281203            7.65193
    451       0.00000           0.282093            7.67615
    452       0.00000           0.284162            7.73245
    453       0.00000           0.285332            7.76428
    454       0.00000           0.286194            7.78773
    455       0.00000           0.288029            7.83767
    456       0.00000           0.288778            7.85806
    457       0.00000           0.289208            7.86975
    458       0.00000           0.291869            7.94215
    459       0.00000           0.292285            7.95347
    460       0.00000           0.293862            7.99640
    461       0.00000           0.296965            8.08082
    462       0.00000           0.299599            8.15251
    463       0.00000           0.300369            8.17345
    464       0.00000           0.301427            8.20224
    465       0.00000           0.302821            8.24019
    466       0.00000           0.303274            8.25249
    467       0.00000           0.305175            8.30424
    468       0.00000           0.305295            8.30750
    469       0.00000           0.306297            8.33475
    470       0.00000           0.307407            8.36498
    471       0.00000           0.308003            8.38119
    472       0.00000           0.308801            8.40289
    473       0.00000           0.309424            8.41985
    474       0.00000           0.309887            8.43246
    475       0.00000           0.311785            8.48409
    476       0.00000           0.313354            8.52679
    477       0.00000           0.315584            8.58748
    478       0.00000           0.315769            8.59252
    479       0.00000           0.316823            8.62119
    480       0.00000           0.320101            8.71039
    481       0.00000           0.321754            8.75538
    482       0.00000           0.324490            8.82982
    483       0.00000           0.325527            8.85805
    484       0.00000           0.326715            8.89036
    485       0.00000           0.327590            8.91418
    486       0.00000           0.330723            8.99943
    487       0.00000           0.331611            9.02361
    488       0.00000           0.334031            9.08945
    489       0.00000           0.335357            9.12554
    490       0.00000           0.336717            9.16253
    491       0.00000           0.339340            9.23391
    492       0.00000           0.340239            9.25836
    493       0.00000           0.344194            9.36599
    494       0.00000           0.346378            9.42541
    495       0.00000           0.347298            9.45047
    496       0.00000           0.347848            9.46543
    497       0.00000           0.349710            9.51610
    498       0.00000           0.350303            9.53222
    499       0.00000           0.351484            9.56438
    500       0.00000           0.353539            9.62029
    501       0.00000           0.354279            9.64041
    502       0.00000           0.356135            9.69092
    503       0.00000           0.357327            9.72336
    504       0.00000           0.360323            9.80489
    505       0.00000           0.364022            9.90553
    506       0.00000           0.365358            9.94191
    507       0.00000           0.366236            9.96578
    508       0.00000           0.367366            9.99653
    509       0.00000           0.370351           10.07775
    510       0.00000           0.371984           10.12221
    511       0.00000           0.374201           10.18252
    512       0.00000           0.374908           10.20178
    513       0.00000           0.376200           10.23694
    514       0.00000           0.378050           10.28728
    515       0.00000           0.380219           10.34629
    516       0.00000           0.383002           10.42203
    517       0.00000           0.384309           10.45758
    518       0.00000           0.385088           10.47878
    519       0.00000           0.387824           10.55324
    520       0.00000           0.389838           10.60803
    521       0.00000           0.391415           10.65094
    522       0.00000           0.393076           10.69615
    523       0.00000           0.397053           10.80435
    524       0.00000           0.397485           10.81611
    525       0.00000           0.398239           10.83662
    526       0.00000           0.400357           10.89428
    527       0.00000           0.401884           10.93581
    528       0.00000           0.403416           10.97752
    529       0.00000           0.404302           11.00162
    530       0.00000           0.406894           11.07214
    531       0.00000           0.409675           11.14783
    532       0.00000           0.412945           11.23681
    533       0.00000           0.415018           11.29321
    534       0.00000           0.416208           11.32559
    535       0.00000           0.417864           11.37066
    536       0.00000           0.422450           11.49545

  Highest occupied state (VBM) at     -4.55632101 eV
  | Occupation number:      2.00000000

  Lowest unoccupied state (CBM) at    -2.97898457 eV
  | Occupation number:      0.00000000

  Overall HOMO-LUMO gap:      1.57733644 eV.

  Total energy components:
  | Sum of eigenvalues            :       -1617.62205204 Ha      -44017.73563370 eV
  | XC energy correction          :        -416.19615965 Ha      -11325.27372773 eV
  | XC potential correction       :         534.67312002 Ha       14549.19585081 eV
  | Free-atom electrostatic energy:       -1240.05432820 Ha      -33743.59512541 eV
  | Hartree energy correction     :        -107.13646247 Ha       -2915.33147422 eV
  | Entropy correction            :           0.00000000 Ha           0.00000000 eV
  | ---------------------------
  | Total energy                  :       -2846.33588233 Ha      -77452.74011026 eV
  | Total energy, T -> 0          :       -2846.33588233 Ha      -77452.74011026 eV  <-- do not rely on this value for anything but (periodic) metals
  | Electronic free energy        :       -2846.33588233 Ha      -77452.74011026 eV

  Derived energy quantities:
  | Kinetic energy                :        2839.36027010 Ha       77262.92404374 eV
  | Electrostatic energy          :       -5269.49999278 Ha     -143390.39042627 eV
  | Energy correction for multipole
  | error in Hartree potential    :          -0.35375470 Ha          -9.62615505 eV
  | Sum of eigenvalues per atom                           :        -366.81446361 eV
  | Total energy (T->0) per atom                          :        -645.43950092 eV  <-- do not rely on this value for anything but (periodic) metals
  | Electronic free energy per atom                       :        -645.43950092 eV
  End evaluation of scaled ZORA corrections.
  | Time for scaled ZORA corrections           :       25.541 s          25.546 s
------------------------------------------------------------

  Energy and forces in a compact form:
  | Total energy uncorrected      :         -0.774527401102645E+05 eV
  | Total energy corrected        :         -0.774527401102645E+05 eV  <-- do not rely on this value for anything but (periodic) metals
  | Electronic free energy        :         -0.774527401102645E+05 eV

  ------------------------------------ 
  Start decomposition of the XC Energy 
  ------------------------------------ 
  X and C from original XC functional choice 
  Hartree-Fock Energy :          0.000000000 Ha              0.000000000 eV
  X Energy            :       -399.733822852 Ha         -10877.310751286 eV
  C Energy            :        -16.462336800 Ha           -447.962976446 eV
  Total XC Energy     :       -416.196159653 Ha         -11325.273727732 eV
  ------------------------------------ 
  LDA X and C from self-consistent density 
  X Energy LDA        :       -362.110838062 Ha          -9853.537246131 eV
  C Energy LDA        :        -31.638193692 Ha           -860.919053452 eV
  ------------------------------------ 
  End decomposition of the XC Energy 
  ------------------------------------ 

------------------------------------------------------------

------------------------------------------------------------------------------
  Final output of selected total energy values:

  The following output summarizes some interesting total energy values
  at the end of a run (AFTER all relaxation, molecular dynamics, etc.).

  | Total energy of the DFT / Hartree-Fock s.c.f. calculation      :         -77452.740110265 eV
  | Final zero-broadening corrected energy (caution - metals only) :         -77452.740110265 eV
  | For reference only, the value of 1 Hartree used in FHI-aims is :             27.211384500 eV

  Before relying on these values, please be sure to understand exactly which
  total energy value is referred to by a given number. Different objects may
  all carry the same name 'total energy'. Definitions:

  Total energy of the DFT / Hartree-Fock s.c.f. calculation:
  | Note that this energy does not include ANY quantities calculated after the
  | s.c.f. cycle, in particular not ANY RPA, MP2, etc. many-body perturbation terms.
  | Scalar relativistic effects have been included in the 'scaled ZORA' approximation.

  Final zero-broadening corrected energy:
  | For metallic systems only, a broadening of the occupation numbers at the Fermi
  | level can be extrapolated back to zero broadening by an electron-gas inspired
  | formula. For all systems that are not real metals, this value can be
  | meaningless and should be avoided.

------------------------------------------------------------------------------
  Methods described in the following list of references were used in this FHI-aims run.
  If you publish the results, please make sure to cite these reference if they apply.
  FHI-aims is an academic code, and for our developers (often, Ph.D. students
  and postdocs), scientific credit in the community is essential.
  Thank you for helping us!

  For any use of FHI-aims, please cite:

    Volker Blum, Ralf Gehrke, Felix Hanke, Paula Havu, Ville Havu,
    Xinguo Ren, Karsten Reuter, and Matthias Scheffler
    'Ab initio molecular simulations with numeric atom-centered orbitals'
    Computer Physics Communications 180, 2175-2196 (2009)
    http://dx.doi.org/10.1016/j.cpc.2009.06.022


  The scalable eigensolver library ELPA was used in your run.
  ELPA is essential especially for large systems on hundreds or thousands of CPUs.
  For ELPA, please cite:

    Andreas Marek, Volker Blum, Rainer Johanni, Ville Havu, Bruno Lang,
    Thomas Auckenthaler, Alexander Heinecke, Hans-Joachim Bungartz, and Hermann Lederer,
    'The ELPA Library - Scalable Parallel Eigenvalue Solutions
    for Electronic Structure Theory and Computational Science'
    The Journal of Physics: Condensed Matter 26, 213201 (2014).
    http://dx.doi.org/10.1088/0953-8984/26/21/213201


  The ELSI infrastructure was used in your run to solve the Kohn-Sham electronic structure.
  Please check out http://elsi-interchange.org to learn more.
  If scalability is important for your project, please acknowledge ELSI by citing:

    V. W-z. Yu, F. Corsetti, A. Garcia, W. P. Huhn, M. Jacquelin, W. Jia,
    B. Lange, L. Lin, J. Lu, W. Mi, A. Seifitokaldani, A. Vazquez-Mayagoitia,
    C. Yang, H. Yang, and V. Blum
    'ELSI: A unified software interface for Kohn-Sham electronic structure solvers'
    Computer Physics Communications 222, 267-285 (2018).
    http://dx.doi.org/10.1016/j.cpc.2017.09.007


  For the real-space grid partitioning and parallelization used in this calculation, please cite:

    Ville Havu, Volker Blum, Paula Havu, and Matthias Scheffler,
    'Efficient O(N) integration for all-electron electronic structure calculation'
    'using numerically tabulated basis functions'
    Journal of Computational Physics 228, 8367-8379 (2009).
    http://dx.doi.org/10.1016/j.jcp.2009.08.008

  Of course, there are many other important community references, e.g., those cited in the
  above references. Our list is limited to references that describe implementations in the
  FHI-aims code. The reason is purely practical (length of this list) - please credit others as well.

------------------------------------------------------------
          Leaving FHI-aims.
          Date     :  20210727, Time     :  231625.251

          Computational steps:
          | Number of self-consistency cycles          :           21
          | Number of SCF (re)initializations          :            1

          Detailed time accounting                     :  max(cpu_time)    wall_clock(cpu1)
          | Total time                                 :      588.240 s         588.576 s
          | Preparation time                           :        0.192 s           0.185 s
          | Boundary condition initalization           :        0.001 s           0.004 s
          | Grid partitioning                          :        2.551 s           2.557 s
          | Preloading free-atom quantities on grid    :        0.013 s           0.016 s
          | Free-atom superposition energy             :        0.303 s           0.303 s
          | Total time for integrations                :      304.431 s         304.467 s
          | Total time for solution of K.-S. equations :       21.726 s          21.760 s
          | Total time for density update              :      169.639 s         169.567 s
          | Total time for mixing                      :        0.468 s           0.475 s
          | Total time for Hartree multipole update    :        0.470 s           0.479 s
          | Total time for Hartree multipole sum       :       57.535 s          57.542 s
          | Total time for total energy evaluation     :        0.012 s           0.043 s
          | Total time for scaled ZORA corrections     :       25.541 s          25.546 s

          Partial memory accounting:
          | Residual value for overall tracked memory usage across tasks :     0.000000 MB (should be 0.000000 MB)
          | Peak values for overall tracked memory usage (after allocating zora_vector2):
          |   Minimum:       65.763 MB (on task 42)
          |   Maximum:       91.537 MB (on task 14)
          |   Average:       76.149 MB
          | Largest tracked array allocation (hamiltonian_shell):
          |   Minimum:       16.890 MB (on task  1)
          |   Maximum:       22.043 MB (on task 14)
          |   Average:       17.481 MB
          Note:  These values currently only include a subset of arrays which are explicitly tracked.
          The "true" memory usage will be greater.

          Have a nice day.
------------------------------------------------------------
