  MPI-parallelism will be employed.
------------------------------------------------------------
          Invoking FHI-aims ...
          Version 180607
          Git rev. (modified): 6724847 Fix JSON memory corruption in scf_solver
          Compiled on 2018/06/27 at 16:00:31 on host coe.psc.edu.

          When using FHI-aims, please cite the following reference:

          Volker Blum, Ralf Gehrke, Felix Hanke, Paula Havu,
          Ville Havu, Xinguo Ren, Karsten Reuter, and Matthias Scheffler,
          'Ab Initio Molecular Simulations with Numeric Atom-Centered Orbitals',
          Computer Physics Communications 180, 2175-2196 (2009)

          For any questions about FHI-aims, please visit the aimsclub website
          with its forums and wiki. Contributions to both the forums and the
          wiki are warmly encouraged - they are for you, and everyone is welcome there.

------------------------------------------------------------



  Date     :  20210620, Time     :  174617.344
  Time zero on CPU 1             :   0.175094000000000E+00  s.
  Internal wall clock time zero  :           393443177.344  s.

  FHI-aims created a unique identifier for this run for later identification
  aims_uuid : 8BF413DF-155D-48D0-A18D-E796948EE25D

  Using       56 parallel tasks.
  Task        0 on host d024 reporting.
  Task        1 on host d024 reporting.
  Task        2 on host d024 reporting.
  Task        3 on host d024 reporting.
  Task        4 on host d024 reporting.
  Task        5 on host d024 reporting.
  Task        6 on host d024 reporting.
  Task        7 on host d024 reporting.
  Task        8 on host d024 reporting.
  Task        9 on host d024 reporting.
  Task       10 on host d024 reporting.
  Task       11 on host d024 reporting.
  Task       12 on host d024 reporting.
  Task       13 on host d024 reporting.
  Task       14 on host d024 reporting.
  Task       15 on host d024 reporting.
  Task       16 on host d024 reporting.
  Task       17 on host d024 reporting.
  Task       18 on host d024 reporting.
  Task       19 on host d024 reporting.
  Task       20 on host d024 reporting.
  Task       21 on host d024 reporting.
  Task       22 on host d024 reporting.
  Task       23 on host d024 reporting.
  Task       24 on host d024 reporting.
  Task       25 on host d024 reporting.
  Task       26 on host d024 reporting.
  Task       27 on host d024 reporting.
  Task       28 on host d024 reporting.
  Task       29 on host d024 reporting.
  Task       30 on host d024 reporting.
  Task       31 on host d024 reporting.
  Task       32 on host d024 reporting.
  Task       33 on host d024 reporting.
  Task       34 on host d024 reporting.
  Task       35 on host d024 reporting.
  Task       36 on host d024 reporting.
  Task       37 on host d024 reporting.
  Task       38 on host d024 reporting.
  Task       39 on host d024 reporting.
  Task       40 on host d024 reporting.
  Task       41 on host d024 reporting.
  Task       42 on host d024 reporting.
  Task       43 on host d024 reporting.
  Task       44 on host d024 reporting.
  Task       45 on host d024 reporting.
  Task       46 on host d024 reporting.
  Task       47 on host d024 reporting.
  Task       48 on host d024 reporting.
  Task       49 on host d024 reporting.
  Task       50 on host d024 reporting.
  Task       51 on host d024 reporting.
  Task       52 on host d024 reporting.
  Task       53 on host d024 reporting.
  Task       54 on host d024 reporting.
  Task       55 on host d024 reporting.

  Performing system and environment tests:
  *** Environment variable OMP_NUM_THREADS is not set
  *** For performance reasons you might want to set it to 1
  | Stacksize not measured: no C compiler
  | Checking for scalapack...
  | Testing pdtran()...
  | All pdtran() tests passed.

  Obtaining array dimensions for all initial allocations:
  
  -----------------------------------------------------------------------
  Parsing control.in (first pass over file, find array dimensions only).
  The contents of control.in will be repeated verbatim below
  unless switched off by setting 'verbatim_writeout .false.' .
  in the first line of control.in .
  -----------------------------------------------------------------------
  
  #===============================================================================
  # FHI-aims file: ./Runs/es/control.in
  # Created using the Atomic Simulation Environment (ASE)
  # Mon Jan 13 16:04:38 2020
  #===============================================================================
  xc                                 pbe
  relativistic                       zora scalar 1e-12
  occupation_type                    gaussian 0.0001
  load_balancing                     .true.
  KS_method                          scalapack_fast
  mixer                              pulay
  n_max_pulay                        5
  charge_mix_param                   0.4
  sc_accuracy_etot                   1e-6
  sc_accuracy_eev                    1e-4
  sc_accuracy_rho                    1e-6
  sc_iter_limit                      100
  prodbas_threshold                  1e-4
  basis_threshold                    1e-5
  override_illconditioning           .true.
  use_logsbt                         .true.
  spin                               none
  charge                             0
  #===============================================================================
  
  ################################################################################
  #
  #  FHI-aims code project
  # Volker Blum, Fritz Haber Institute Berlin, 2009
  #
  #  Suggested "tight" defaults for H atom (to be pasted into control.in file)
  #
  ################################################################################
    species        H
  #     global species definitions
      nucleus             1
      mass                1.00794
  #
      l_hartree           6
  #
      cut_pot             4.0  2.0  1.0
      basis_dep_cutoff    1e-4
  #
      radial_base         24 7.0
      radial_multiplier   2
      angular_grids       specified
        division   0.1930   50
        division   0.3175  110
        division   0.4293  194
        division   0.5066  302
        division   0.5626  434
  #      division   0.5922  590
  #      division   0.6227  974
  #      division   0.6868 1202
  #      outer_grid  770
        outer_grid  434
  ################################################################################
  #
  #  Definition of "minimal" basis
  #
  ################################################################################
  #     valence basis states
      valence      1  s   1.
  #     ion occupancy
      ion_occ      1  s   0.5
  ################################################################################
  #
  #  Suggested additional basis functions. For production calculations,
  #  uncomment them one after another (the most important basis functions are
  #  listed first).
  #
  #  Basis constructed for dimers: 0.5 A, 0.7 A, 1.0 A, 1.5 A, 2.5 A
  #
  ################################################################################
  #  "First tier" - improvements: -1014.90 meV to -62.69 meV
       hydro 2 s 2.1
       hydro 2 p 3.5
  #  "Second tier" - improvements: -12.89 meV to -1.83 meV
       hydro 1 s 0.85
       hydro 2 p 3.7
       hydro 2 s 1.2
       hydro 3 d 7
  #  "Third tier" - improvements: -0.25 meV to -0.12 meV
  #     hydro 4 f 11.2
  #     hydro 3 p 4.8
  #     hydro 4 d 9
  #     hydro 3 s 3.2
  ################################################################################
  #
  # For methods that use the localized form of the "resolution of identity" for
  # the two-electron Coulomb operator (RI_method LVL), particularly Hartree-Fock and
  # hybrid density functional calculations, the highest accuracy can be obtained by
  # uncommenting the line beginning with "for_aux"  below, thus adding an extra g radial
  # function to the construction of the product basis set for the expansion.
  # See Ref. New J. Phys. 17, 093020 (2015) for more information, particularly Figs. 1 and 6.
  #
  ################################################################################
  #
  # for_aux hydro 5 g 6.0
  ################################################################################
  #
  #  FHI-aims code project
  # Volker Blum, Fritz Haber Institute Berlin, 2009
  #
  #  Suggested "tight" defaults for C atom (to be pasted into control.in file)
  #
  ################################################################################
    species        C
  #     global species definitions
      nucleus             6
      mass                12.0107
  #
      l_hartree           6
  #
      cut_pot             4.0  2.0  1.0
      basis_dep_cutoff    1e-4
  #
      radial_base         34 7.0
      radial_multiplier   2
      angular_grids specified
        division   0.2187   50
        division   0.4416  110
        division   0.6335  194
        division   0.7727  302
        division   0.8772  434
  #      division   0.9334  590
  #      division   0.9924  770
  #      division   1.0230  974
  #      division   1.5020 1202
  #     outer_grid  974
        outer_grid  434
  ################################################################################
  #
  #  Definition of "minimal" basis
  #
  ################################################################################
  #     valence basis states
      valence      2  s   2.
      valence      2  p   2.
  #     ion occupancy
      ion_occ      2  s   1.
      ion_occ      2  p   1.
  ################################################################################
  #
  #  Suggested additional basis functions. For production calculations,
  #  uncomment them one after another (the most important basis functions are
  #  listed first).
  #
  #  Constructed for dimers: 1.0 A, 1.25 A, 1.5 A, 2.0 A, 3.0 A
  #
  ################################################################################
  #  "First tier" - improvements: -1214.57 meV to -155.61 meV
       hydro 2 p 1.7
       hydro 3 d 6
       hydro 2 s 4.9
  #  "Second tier" - improvements: -67.75 meV to -5.23 meV
       hydro 4 f 9.8
       hydro 3 p 5.2
       hydro 3 s 4.3
       hydro 5 g 14.4
       hydro 3 d 6.2
  #  "Third tier" - improvements: -2.43 meV to -0.60 meV
  #     hydro 2 p 5.6
  #     hydro 2 s 1.4
  #     hydro 3 d 4.9
  #     hydro 4 f 11.2
  #  "Fourth tier" - improvements: -0.39 meV to -0.18 meV
  #     hydro 2 p 2.1
  #     hydro 5 g 16.4
  #     hydro 4 d 13.2
  #     hydro 3 s 13.6
  #     hydro 4 f 17.6
  #  Further basis functions - improvements: -0.08 meV and below
  #     hydro 3 s 2
  #     hydro 3 p 6
  #     hydro 4 d 20
  ################################################################################
  #
  # For methods that use the localized form of the "resolution of identity" for
  # the two-electron Coulomb operator (RI_method LVL), particularly Hartree-Fock and
  # hybrid density functional calculations, the highest accuracy can be obtained by
  # uncommenting the line beginning with "for_aux"  below, thus adding an extra g radial
  # function to the construction of the product basis set for the expansion.
  # See Ref. New J. Phys. 17, 093020 (2015) for more information, particularly Figs. 1 and 6.
  #
  ################################################################################
  #
  # for_aux hydro 5 g 6.0
  
  -----------------------------------------------------------------------
  Completed first pass over input file control.in .
  -----------------------------------------------------------------------
  
  
  -----------------------------------------------------------------------
  Parsing geometry.in (first pass over file, find array dimensions only).
  The contents of geometry.in will be repeated verbatim below
  unless switched off by setting 'verbatim_writeout .false.' .
  in the first line of geometry.in .
  -----------------------------------------------------------------------
  
  #=======================================================
  # FHI-aims file: geometry.in
  # Created using the Atomic Simulation Environment (ASE)
  # Sun Jun 20 15:47:02 2021
  #=======================================================
  atom 8.6990750000000006 27.1596040000000016 42.4429579999999973 H
  atom 8.8777290000000004 27.2236259999999994 41.3696229999999971 C
  atom 8.5335990000000006 28.3563469999999995 40.6807360000000031 C
  atom 9.5072539999999996 26.1693469999999984 40.7026219999999981 C
  atom 8.1131879999999992 29.1949000000000005 41.2289749999999984 H
  atom 8.7403030000000008 28.4666080000000008 39.2850230000000025 C
  atom 9.8820700000000006 25.3090249999999983 41.2528349999999975 H
  atom 9.6902380000000008 26.2318609999999985 39.3451209999999989 C
  atom 8.5358579999999993 29.7124279999999992 38.5774779999999993 C
  atom 9.2542390000000001 27.3437799999999989 38.5862690000000015 C
  atom 10.2281200000000005 25.4308140000000016 38.8489069999999970 H
  atom 7.9752349999999996 30.8501060000000003 39.2098549999999975 C
  atom 8.9827759999999994 29.8378249999999987 37.2445540000000008 C
  atom 9.4172680000000000 27.4161770000000011 37.1430149999999983 C
  atom 7.5396879999999999 30.7569979999999994 40.2022819999999967 H
  atom 7.9639400000000000 32.0665509999999969 38.6006209999999967 C
  atom 8.9759980000000006 31.1160409999999992 36.6078720000000004 C
  atom 9.4176450000000003 28.6646339999999995 36.5233759999999990 C
  atom 9.5930979999999995 26.2233909999999995 36.3324969999999965 C
  atom 7.5211639999999997 32.9086909999999975 39.1285880000000006 H
  atom 8.5200449999999996 32.2510270000000006 37.3121870000000015 C
  atom 9.4078549999999996 31.2471010000000007 35.2356600000000029 C
  atom 9.8495019999999993 28.7956930000000000 35.1511640000000014 C
  atom 9.1555940000000007 24.9474230000000006 36.7576689999999999 C
  atom 10.1168239999999994 26.3401679999999985 35.0203830000000025 C
  atom 8.7086760000000005 33.5715670000000017 36.7386529999999993 C
  atom 9.8427240000000005 30.0739090000000004 34.5144820000000010 C
  atom 9.4082319999999999 32.4955569999999980 34.6160210000000035 C
  atom 10.3054550000000003 27.6607079999999996 34.4468490000000003 C
  atom 8.5984719999999992 24.8648950000000006 37.6855139999999977 H
  atom 9.3551439999999992 23.8208799999999989 35.9948710000000034 C
  atom 10.3453649999999993 25.1613399999999992 34.2755239999999972 C
  atom 8.4801350000000006 34.7503940000000000 37.4835119999999975 C
  atom 9.2324020000000004 33.6883430000000033 35.4265389999999982 C
  atom 10.2896420000000006 30.1993060000000000 33.1815580000000026 C
  atom 9.5712609999999998 32.5679540000000003 33.1727670000000003 C
  atom 10.8615600000000008 27.8451829999999987 33.1584149999999980 C
  atom 8.9725350000000006 22.8618980000000001 36.3418259999999975 H
  atom 10.0016119999999997 23.9270840000000007 34.7604359999999986 C
  atom 10.7966879999999996 25.2306939999999997 33.2875820000000004 H
  atom 8.0288120000000003 34.6810400000000030 38.4714540000000014 H
  atom 8.8238880000000002 35.9846500000000020 36.9986000000000033 C
  atom 9.6699059999999992 34.9643110000000021 35.0013670000000019 C
  atom 10.0851970000000009 31.4451259999999984 32.4740139999999968 C
  atom 10.8502650000000003 29.0616289999999999 32.5491809999999973 C
  atom 9.1352620000000009 33.6798739999999981 32.4139150000000029 C
  atom 11.3043359999999993 27.0030439999999992 32.6304480000000012 H
  atom 10.2019529999999996 23.0403640000000003 34.1616069999999965 H
  atom 8.6235470000000003 36.8713710000000034 37.5974289999999982 H
  atom 9.4703560000000007 36.0908540000000002 35.7641649999999984 C
  atom 10.2270280000000007 35.0468389999999985 34.0735230000000016 H
  atom 10.2919009999999993 31.5553869999999996 31.0782999999999987 C
  atom 11.2858120000000000 29.1547359999999998 31.5567540000000015 H
  atom 8.5973799999999994 34.4809210000000022 32.9101289999999977 H
  atom 9.3182460000000003 33.7423870000000008 31.0564140000000002 C
  atom 9.8529649999999993 37.0498369999999966 35.4172099999999972 H
  atom 9.9477709999999995 32.6881089999999972 30.3894139999999986 C
  atom 10.7123120000000007 30.7168339999999986 30.5300609999999999 H
  atom 8.9434299999999993 34.6027089999999973 30.5062010000000008 H
  atom 10.1264249999999993 32.7521300000000011 29.3160780000000010 H
  
  -----------------------------------------------------------------------
  Completed first pass over input file geometry.in .
  -----------------------------------------------------------------------
  

  Basic array size parameters:
  | Number of species                 :        2
  | Number of atoms                   :       60
  | Max. basis fn. angular momentum   :        4
  | Max. atomic/ionic basis occupied n:        2
  | Max. number of basis fn. types    :        2
  | Max. radial fns per species/type  :        8
  | Max. logarithmic grid size        :     1277
  | Max. radial integration grid size :       69
  | Max. angular integration grid size:      434
  | Max. angular grid division number :        8
  | Radial grid for Hartree potential :     1277
  | Number of spin channels           :        1

------------------------------------------------------------
          Reading file control.in.
------------------------------------------------------------
  XC: Using PBE gradient-corrected functionals.
  Scalar relativistic treatment of kinetic energy: ZORA.
  Threshold value for ZORA:   0.100000E-11
  Occupation type: Gaussian broadening, width =   0.100000E-03 eV.
  Since 'load_balancing .true.' is present in control.in, automatically turning on 'use_local_index .true.'.
  Using load balancing for integrations.
  Kohn-Sham electronic structure solved by the ELSI library.
  Using pulay charge density mixing.
  Pulay mixing - number of memorized iterations:    5
  Charge density mixing - mixing parameter:     0.4000
  Convergence accuracy of total energy:  0.1000E-05
  Convergence accuracy of sum of eigenvalues:  0.1000E-03
  Convergence accuracy of self-consistent charge density:  0.1000E-05
  Maximum number of s.-c. iterations  :   100
  * Ignoring prodbas_threshold
  Threshold for basis singularities:  0.1000E-04
  override_illconditioning: Explicitly overriding any built-in checks for an ill-conditioned overlap matrix.
  *** WARNING: If you use this flag, you should really know what you are doing.
  *** DO NOT keep this flag set by default in all your control.in files.
  Using 1D integrations for auxiliary 2-center integrals.
  Spin treatment: No spin polarisation.
  Charge =   0.000000E+00: Neutral system requested explicitly.
 
  Reading configuration options for species H                   .
  | Found nuclear charge :   1.0000
  | Found atomic mass :    1.00794000000000      amu
  | Found l_max for Hartree potential  :   6
  | Found cutoff potl. onset [A], width [A], scale factor :    4.00000    2.00000    1.00000
  | Threshold for basis-dependent cutoff potential is   0.100000E-03
  | Found data for basic radial integration grid :    24 points, outermost radius =    7.000 A
  | Found multiplier for basic radial grid :   2
  | Found angular grid specification: user-specified.
  | Specified grid contains     6 separate shells.
  | Check grid settings after all constraints further below.
  | Found free-atom valence shell :  1 s   1.000
  | No ionic wave fns used. Skipping ion_occ.
  | Found hydrogenic basis function :  2 s   2.100
  | Found hydrogenic basis function :  2 p   3.500
  | Found hydrogenic basis function :  1 s   0.850
  | Found hydrogenic basis function :  2 p   3.700
  | Found hydrogenic basis function :  2 s   1.200
  | Found hydrogenic basis function :  3 d   7.000
  Species H                   : Missing cutoff potential type.
  Defaulting to exp(1/x)/(1-x)^2 type cutoff potential.
  Species H : No 'logarithmic' tag. Using default grid for free atom:
  | Default logarithmic grid data [bohr] : 0.1000E-03 0.1000E+03 0.1012E+01
  Species H : On-site basis accuracy parameter (for Gram-Schmidt orthonormalisation) not specified.
  Using default value basis_acc =  0.1000000E-03.
  Species H                   : Using default innermost maximum threshold i_radial=  2 for radial functions.
  Species H                   : Default cutoff onset for free atom density etc. : 0.40000000E+01 AA.
  Species H                   : Basic radial grid will be enhanced according to radial_multiplier =   2, to contain    49 grid points.
 
  Reading configuration options for species C                   .
  | Found nuclear charge :   6.0000
  | Found atomic mass :    12.0107000000000      amu
  | Found l_max for Hartree potential  :   6
  | Found cutoff potl. onset [A], width [A], scale factor :    4.00000    2.00000    1.00000
  | Threshold for basis-dependent cutoff potential is   0.100000E-03
  | Found data for basic radial integration grid :    34 points, outermost radius =    7.000 A
  | Found multiplier for basic radial grid :   2
  | Found angular grid specification: user-specified.
  | Specified grid contains     6 separate shells.
  | Check grid settings after all constraints further below.
  | Found free-atom valence shell :  2 s   2.000
  | Found free-atom valence shell :  2 p   2.000
  | No ionic wave fns used. Skipping ion_occ.
  | No ionic wave fns used. Skipping ion_occ.
  | Found hydrogenic basis function :  2 p   1.700
  | Found hydrogenic basis function :  3 d   6.000
  | Found hydrogenic basis function :  2 s   4.900
  | Found hydrogenic basis function :  4 f   9.800
  | Found hydrogenic basis function :  3 p   5.200
  | Found hydrogenic basis function :  3 s   4.300
  | Found hydrogenic basis function :  5 g  14.400
  | Found hydrogenic basis function :  3 d   6.200
  Species C                   : Missing cutoff potential type.
  Defaulting to exp(1/x)/(1-x)^2 type cutoff potential.
  Species C : No 'logarithmic' tag. Using default grid for free atom:
  | Default logarithmic grid data [bohr] : 0.1000E-03 0.1000E+03 0.1012E+01
  Species C : On-site basis accuracy parameter (for Gram-Schmidt orthonormalisation) not specified.
  Using default value basis_acc =  0.1000000E-03.
  Species C                   : Using default innermost maximum threshold i_radial=  2 for radial functions.
  Species C                   : Default cutoff onset for free atom density etc. : 0.40000000E+01 AA.
  Species C                   : Basic radial grid will be enhanced according to radial_multiplier =   2, to contain    69 grid points.
 
  Finished reading input file 'control.in'. Consistency checks are next.
 
  MPI_IN_PLACE appears to work with this MPI implementation.
  | Keeping use_mpi_in_place .true. (see manual).
  Target number of points in a grid batch is not set. Defaulting to  100
  Method for grid partitioning is not set. Defaulting to parallel hash+maxmin partitioning.
  Batch size limit is not set. Defaulting to    200
  By default, will store active basis functions for each batch.
  If in need of memory, prune_basis_once .false. can be used to disable this option.
  communication_type for Hartree potential was not specified.
  Defaulting to calc_hartree .
  Pulay mixer: Number of initial linear mixing iterations not set.
  Defaulting to    0 iterations.
  Work space size for distributed Hartree potential not set.
  Defaulting to   0.200000E+03 MB.
  Algorithm-dependent basis array size parameters:
  | n_max_pulay                         :        5
  Presetting      1001 iterations before the initial mixing cycle
  is restarted anyway using the sc_init_iter criterion / keyword.
  Presetting a factor      1.000 between actual scf density residual
  and density convergence criterion sc_accuracy_rho below which sc_init_iter
  takes no effect.
  Calculation of forces was not defined in control.in. No forces will be calculated.
  Geometry relaxation not requested: no relaxation will be performed.
  No accuracy limit for integral partition fn. given. Defaulting to  0.1000E-14.
  No threshold value for u(r) in integrations given. Defaulting to  0.1000E-05.
  No accuracy for occupation numbers given. Defaulting to  0.1000E-12.
  No threshold value for occupation numbers given. Defaulting to  0.0000E+00.
  No accuracy for fermi level given. Defaulting to  0.1000E-19.
  Maximum # of iterations to find E_F not set. Defaulting to  200.
  Will not use alltoall communication since running on < 1024 CPUs.
  partition_type (choice of integration weights) for integrals was not specified.
  | Using a version of the partition function of Stratmann and coworkers ('stratmann_sparse').
  | At each grid point, the set of atoms used to build the partition table is smoothly restricted to
  | only those atoms whose free-atom density would be non-zero at that grid point.
  Partitioning for Hartree potential was not defined. Using partition_type for integrals.
  | Adjusted default value of keyword multip_moments_threshold to:       0.10000000E-11
  | This value may affect high angular momentum components of the Hartree potential in periodic systems.
  No q(lm)/r^(l+1) cutoff set for long-range Hartree potential.
  | Using default value of  0.100000E-09 .
  | Verify using the multipole_threshold keyword.
  Defaulting to new monopole extrapolation.
  Density update method: automatic selection selected.
 * Warning: use_local_index and/or load_balancing needs packed_matrix_format = index
 * Changing the default setting to packed_matrix_format = index
------------------------------------------------------------


------------------------------------------------------------
          Reading geometry description geometry.in.
------------------------------------------------------------
  Input structure read successfully.
  The structure contains       60 atoms,  and a total of        260.000 electrons.

  Input geometry:
  | No unit cell requested.
  | Atomic structure:
  |       Atom                x [A]            y [A]            z [A]
  |    1: Species H             8.69907500       27.15960400       42.44295800
  |    2: Species C             8.87772900       27.22362600       41.36962300
  |    3: Species C             8.53359900       28.35634700       40.68073600
  |    4: Species C             9.50725400       26.16934700       40.70262200
  |    5: Species H             8.11318800       29.19490000       41.22897500
  |    6: Species C             8.74030300       28.46660800       39.28502300
  |    7: Species H             9.88207000       25.30902500       41.25283500
  |    8: Species C             9.69023800       26.23186100       39.34512100
  |    9: Species C             8.53585800       29.71242800       38.57747800
  |   10: Species C             9.25423900       27.34378000       38.58626900
  |   11: Species H            10.22812000       25.43081400       38.84890700
  |   12: Species C             7.97523500       30.85010600       39.20985500
  |   13: Species C             8.98277600       29.83782500       37.24455400
  |   14: Species C             9.41726800       27.41617700       37.14301500
  |   15: Species H             7.53968800       30.75699800       40.20228200
  |   16: Species C             7.96394000       32.06655100       38.60062100
  |   17: Species C             8.97599800       31.11604100       36.60787200
  |   18: Species C             9.41764500       28.66463400       36.52337600
  |   19: Species C             9.59309800       26.22339100       36.33249700
  |   20: Species H             7.52116400       32.90869100       39.12858800
  |   21: Species C             8.52004500       32.25102700       37.31218700
  |   22: Species C             9.40785500       31.24710100       35.23566000
  |   23: Species C             9.84950200       28.79569300       35.15116400
  |   24: Species C             9.15559400       24.94742300       36.75766900
  |   25: Species C            10.11682400       26.34016800       35.02038300
  |   26: Species C             8.70867600       33.57156700       36.73865300
  |   27: Species C             9.84272400       30.07390900       34.51448200
  |   28: Species C             9.40823200       32.49555700       34.61602100
  |   29: Species C            10.30545500       27.66070800       34.44684900
  |   30: Species H             8.59847200       24.86489500       37.68551400
  |   31: Species C             9.35514400       23.82088000       35.99487100
  |   32: Species C            10.34536500       25.16134000       34.27552400
  |   33: Species C             8.48013500       34.75039400       37.48351200
  |   34: Species C             9.23240200       33.68834300       35.42653900
  |   35: Species C            10.28964200       30.19930600       33.18155800
  |   36: Species C             9.57126100       32.56795400       33.17276700
  |   37: Species C            10.86156000       27.84518300       33.15841500
  |   38: Species H             8.97253500       22.86189800       36.34182600
  |   39: Species C            10.00161200       23.92708400       34.76043600
  |   40: Species H            10.79668800       25.23069400       33.28758200
  |   41: Species H             8.02881200       34.68104000       38.47145400
  |   42: Species C             8.82388800       35.98465000       36.99860000
  |   43: Species C             9.66990600       34.96431100       35.00136700
  |   44: Species C            10.08519700       31.44512600       32.47401400
  |   45: Species C            10.85026500       29.06162900       32.54918100
  |   46: Species C             9.13526200       33.67987400       32.41391500
  |   47: Species H            11.30433600       27.00304400       32.63044800
  |   48: Species H            10.20195300       23.04036400       34.16160700
  |   49: Species H             8.62354700       36.87137100       37.59742900
  |   50: Species C             9.47035600       36.09085400       35.76416500
  |   51: Species H            10.22702800       35.04683900       34.07352300
  |   52: Species C            10.29190100       31.55538700       31.07830000
  |   53: Species H            11.28581200       29.15473600       31.55675400
  |   54: Species H             8.59738000       34.48092100       32.91012900
  |   55: Species C             9.31824600       33.74238700       31.05641400
  |   56: Species H             9.85296500       37.04983700       35.41721000
  |   57: Species C             9.94777100       32.68810900       30.38941400
  |   58: Species H            10.71231200       30.71683400       30.53006100
  |   59: Species H             8.94343000       34.60270900       30.50620100
  |   60: Species H            10.12642500       32.75213000       29.31607800
  |

  | The smallest distance between any two atoms is         1.08499847 AA.
  |
  | The first atom of this pair is atom number                      8 .
  | The second atom of this pair is atom number                    11 .

  Number of empty states per atom not set in control.in - providing a guess from actual geometry.
  | Total number of empty states used during s.c.f. cycle:      150
  If you use a very high smearing, use empty_states (per atom!) in control.in to increase this value.

  Structure-dependent array size parameters: 
  | Maximum number of distinct radial functions  :       18
  | Maximum number of basis functions            :     1860
  | Number of Kohn-Sham states (occupied + empty):      280
------------------------------------------------------------

------------------------------------------------------------
          Preparing all fixed parts of the calculation.
------------------------------------------------------------
  Determining machine precision:
    2.225073858507201E-308
  Setting up grids for atomic and cluster calculations.

  Creating wave function, potential, and density for free atoms.

  Species: H

  List of occupied orbitals and eigenvalues:
    n    l              occ      energy [Ha]    energy [eV]
    1    0           1.0000        -0.238386        -6.4868


  Species: C

  List of occupied orbitals and eigenvalues:
    n    l              occ      energy [Ha]    energy [eV]
    1    0           2.0000       -10.049212      -273.4530
    2    0           2.0000        -0.504761       -13.7352
    2    1           2.0000        -0.193631        -5.2690

  Creating fixed part of basis set: Ionic, confined, hydrogenic.
 
  H                    hydrogenic:
 
  List of hydrogenic basis orbitals: 
    n    l      effective z      eigenvalue [eV]  inner max. [A]     outer max. [A]     outer radius [A]   
    2    0         2.100000       -14.9965           0.193243           1.317208           5.373006
    2    1         3.500000       -41.6672           0.602369           0.602369           4.056063
    1    0         0.850000        -9.8292           0.624871           0.624871           5.373006
    2    1         3.700000       -46.5653           0.573622           0.573622           3.910002
    2    0         1.200000        -4.5995           0.334980           2.228188           5.505995
    3    2         7.000000       -74.0753           0.680699           0.680699           3.769201
 
 
  C                    hydrogenic:
 
  List of hydrogenic basis orbitals: 
    n    l      effective z      eigenvalue [eV]  inner max. [A]     outer max. [A]     outer radius [A]   
    2    1         1.700000        -9.8152           1.245706           1.245706           5.401630
    3    2         6.000000       -54.4226           0.792453           0.792453           4.178599
    2    0         4.900000       -81.6681           0.082559           0.562749           3.353238
    4    3         9.800000       -81.6681           0.863254           0.863254           4.028125
    3    1         5.200000       -40.8774           0.305389           1.215618           4.898362
    3    0         4.300000       -27.9508           0.091041           1.610311           5.401630
    5    4        14.400000      -112.8510           0.917666           0.917666           3.883070
    3    2         6.200000       -58.1113           0.763917           0.763917           4.077671
 

  Adding cutoff potential to free-atom effective potential.
  Creating atomic-like basis functions for current effective potential.

  Species H                   :

  List of atomic basis orbitals and eigenvalues:
    n    l      energy [Ha]    energy [eV]    outer radius [A]
    1    0        -0.238386        -6.4868       5.373006


  Species C                   :

  List of atomic basis orbitals and eigenvalues:
    n    l      energy [Ha]    energy [eV]    outer radius [A]
    1    0       -10.049212      -273.4530       1.934409
    2    0        -0.504761       -13.7352       5.271162
    2    1        -0.193631        -5.2690       5.401630

  Assembling full basis from fixed parts.
  | Species H :   atomic orbital   1 s accepted.
  | Species H :    hydro orbital   2 s accepted.
  | Species H :    hydro orbital   1 s accepted.
  | Species H :    hydro orbital   2 s accepted.
  | Species H :    hydro orbital   2 p accepted.
  | Species H :    hydro orbital   2 p accepted.
  | Species H :    hydro orbital   3 d accepted.
  | Species C :   atomic orbital   1 s accepted.
  | Species C :    hydro orbital   2 s accepted.
  | Species C :   atomic orbital   2 s accepted.
  | Species C :    hydro orbital   3 s accepted.
  | Species C :    hydro orbital   3 p accepted.
  | Species C :   atomic orbital   2 p accepted.
  | Species C :    hydro orbital   2 p accepted.
  | Species C :    hydro orbital   3 d accepted.
  | Species C :    hydro orbital   3 d accepted.
  | Species C :    hydro orbital   4 f accepted.
  | Species C :    hydro orbital   5 g accepted.
 
  Basis size parameters after reduction:
  | Total number of radial functions:       18
  | Total number of basis functions :     1860
 
  Per-task memory consumption for arrays in subroutine allocate_ext:
  |           4.456456MB.
  Testing on-site integration grid accuracy.
  |  Species  Function  <phi|h_atom|phi> (log., in eV)  <phi|h_atom|phi> (rad., in eV)
           1        1                 -6.4870767962                 -6.4871688290
           1        2                 13.5032046589                 13.5028982997
           1        3                 32.8195184817                 32.8119941656
           1        4                 33.8513856511                 33.7670005767 ***
           1        5                 28.8544614965                 28.8544615203
           1        6                 59.6326952547                 59.6327656460
           1        7                 60.2719308513                 60.2719305949
           2        8               -273.4529726040               -273.4529710464
           2        9                -10.7721037319                -10.7721022101
           2       10                 17.6044132601                 17.6044162063
           2       11                 53.7706460658                 53.7706913770
           2       12                 15.0973290362                 15.0973256030
           2       13                  3.8545134692                  3.8545724687
           2       14                 12.1156992592                 12.1182024431
           2       15                 29.4352039302                 29.4352041816
           2       16                 54.8741144708                 54.8740268729
           2       17                 59.3556032049                 59.3556031382
           2       18                 93.4551837154                 93.4551838009
 * Note: Onsite integrals marked "***" above are less accurate than
 * onsite_accuracy_threshold =    0.03000 eV. Usually, this is harmless.
 * When in doubt, tighten the "radial" and/or "radial_multiplier" flags to check.

  Preparing densities etc. for the partition functions (integrals / Hartree potential).

  Preparations completed.
  max(cpu_time)          :      0.191 s.
  Wall clock time (cpu1) :      0.174 s.
------------------------------------------------------------

------------------------------------------------------------
          Begin self-consistency loop: Initialization.

          Date     :  20210620, Time     :  174617.724
------------------------------------------------------------

  Initializing index lists of integration centers etc. from given atomic structure:
  | Number of centers in hartree potential         :        60
  | Number of centers in hartree multipole         :        60
  | Number of centers in electron density summation:        60
  | Number of centers in basis integrals           :        60
  | Number of centers in integrals                 :        60
  | Number of centers in hamiltonian               :        60
  * Using 56 tasks for Scalapack Eigenvalue solver.
  Detailed listing of tasks and assigned k-points:
  (for non-periodic systems, the "k-point" denotes an internal label only)
   Task     0 k-point     1 on d024
   Task     1 k-point     1 on d024
   Task     2 k-point     1 on d024
   Task     3 k-point     1 on d024
   Task     4 k-point     1 on d024
   Task     5 k-point     1 on d024
   Task     6 k-point     1 on d024
   Task     7 k-point     1 on d024
   Task     8 k-point     1 on d024
   Task     9 k-point     1 on d024
   Task    10 k-point     1 on d024
   Task    11 k-point     1 on d024
   Task    12 k-point     1 on d024
   Task    13 k-point     1 on d024
   Task    14 k-point     1 on d024
   Task    15 k-point     1 on d024
   Task    16 k-point     1 on d024
   Task    17 k-point     1 on d024
   Task    18 k-point     1 on d024
   Task    19 k-point     1 on d024
   Task    20 k-point     1 on d024
   Task    21 k-point     1 on d024
   Task    22 k-point     1 on d024
   Task    23 k-point     1 on d024
   Task    24 k-point     1 on d024
   Task    25 k-point     1 on d024
   Task    26 k-point     1 on d024
   Task    27 k-point     1 on d024
   Task    28 k-point     1 on d024
   Task    29 k-point     1 on d024
   Task    30 k-point     1 on d024
   Task    31 k-point     1 on d024
   Task    32 k-point     1 on d024
   Task    33 k-point     1 on d024
   Task    34 k-point     1 on d024
   Task    35 k-point     1 on d024
   Task    36 k-point     1 on d024
   Task    37 k-point     1 on d024
   Task    38 k-point     1 on d024
   Task    39 k-point     1 on d024
   Task    40 k-point     1 on d024
   Task    41 k-point     1 on d024
   Task    42 k-point     1 on d024
   Task    43 k-point     1 on d024
   Task    44 k-point     1 on d024
   Task    45 k-point     1 on d024
   Task    46 k-point     1 on d024
   Task    47 k-point     1 on d024
   Task    48 k-point     1 on d024
   Task    49 k-point     1 on d024
   Task    50 k-point     1 on d024
   Task    51 k-point     1 on d024
   Task    52 k-point     1 on d024
   Task    53 k-point     1 on d024
   Task    54 k-point     1 on d024
   Task    55 k-point     1 on d024
  Tasks:    56 split into      8 X      7 BLACS grid
  Calculating block size based on n_basis =         1860 max_nprow =            8 max_npcol =            7
  ScaLAPACK block size set to:           16
  Allocating        0.522 MB for ovlp
  Allocating        0.522 MB for ham
  Allocating        0.522 MB for eigenvec
  Required Scalapack workspace - INTEGER:            1 REAL:             1
  Partitioning the integration grid into batches with parallel hashing+maxmin method.
  | Number of batches:     8968
  | Maximal batch size:     200
  | Minimal batch size:      20
  | Average batch size:     112.859
  | Standard deviation of batch sizes:      36.020

  Integration load balanced across     56 MPI tasks.
  Work distribution over tasks is as follows:
  Task      0 has      18199 integration points.
  Task      1 has      18131 integration points.
  Task      2 has      17958 integration points.
  Task      3 has      18135 integration points.
  Task      4 has      18116 integration points.
  Task      5 has      18109 integration points.
  Task      6 has      18019 integration points.
  Task      7 has      18119 integration points.
  Task      8 has      18138 integration points.
  Task      9 has      18005 integration points.
  Task     10 has      18163 integration points.
  Task     11 has      18039 integration points.
  Task     12 has      18042 integration points.
  Task     13 has      17895 integration points.
  Task     14 has      18149 integration points.
  Task     15 has      18125 integration points.
  Task     16 has      18014 integration points.
  Task     17 has      18223 integration points.
  Task     18 has      17913 integration points.
  Task     19 has      18129 integration points.
  Task     20 has      18007 integration points.
  Task     21 has      18135 integration points.
  Task     22 has      18111 integration points.
  Task     23 has      18025 integration points.
  Task     24 has      18119 integration points.
  Task     25 has      17997 integration points.
  Task     26 has      18054 integration points.
  Task     27 has      17991 integration points.
  Task     28 has      18145 integration points.
  Task     29 has      18123 integration points.
  Task     30 has      18061 integration points.
  Task     31 has      18230 integration points.
  Task     32 has      17992 integration points.
  Task     33 has      18087 integration points.
  Task     34 has      17994 integration points.
  Task     35 has      18098 integration points.
  Task     36 has      18094 integration points.
  Task     37 has      18042 integration points.
  Task     38 has      18168 integration points.
  Task     39 has      17988 integration points.
  Task     40 has      18074 integration points.
  Task     41 has      17996 integration points.
  Task     42 has      18129 integration points.
  Task     43 has      18210 integration points.
  Task     44 has      17938 integration points.
  Task     45 has      18098 integration points.
  Task     46 has      18016 integration points.
  Task     47 has      18163 integration points.
  Task     48 has      17944 integration points.
  Task     49 has      18114 integration points.
  Task     50 has      18062 integration points.
  Task     51 has      18026 integration points.
  Task     52 has      18150 integration points.
  Task     53 has      18107 integration points.
  Task     54 has      18050 integration points.
  Task     55 has      17961 integration points.
  Initializing partition tables, free-atom densities, potentials, etc. across the integration grid (initialize_grid_storage).
  | initialize_grid_storage: Actual outermost partition radius vs. multipole_radius_free
  | (-- VB: in principle, multipole_radius_free should be larger, hence this output)
  | Species        1: Confinement radius =              6.000000000000000 AA, multipole_radius_free =              6.071692442739658 AA.
  | Species        1: outer_partition_radius set to              6.071692442739658 AA .
  | Species        2: Confinement radius =              6.000000000000000 AA, multipole_radius_free =              6.029870734432609 AA.
  | Species        2: outer_partition_radius set to              6.029870734432609 AA .
  | The sparse table of interatomic distances needs     42.7240 kbyte instead of    28.8000 kbyte of memory.
  | Using the partition_type stratmann_smoother will reduce your memory usage.
  | Net number of integration points:  1012120
  | of which are non-zero points    :   802723
  Renormalizing the initial density to the exact electron count on the 3D integration grid.
  | Initial density: Formal number of electrons (from input files) :     260.0000000000
  | Integrated number of electrons on 3D grid     :     259.9994796513
  | Charge integration error                      :      -0.0005203487
  | Normalization factor for density and gradient :       1.0000020013
  Obtaining max. number of non-zero basis functions in each batch (get_n_compute_maxes).
  | Maximal number of non-zero basis functions:     1085
  Selecting the method for density update.
  Loop over occupied states selected for charge density update.
  Hamiltonian matrix size:
  | Size of matrix non-packed:               1730730
  | Size of matrix packed:         1437370
  Allocating        4.166 MB for KS_eigenvector
  use_local_index: Max. local matrix size =       978250
  Task:     0 matrix size:     238723
  Task:     1 matrix size:     153181
  Task:     2 matrix size:     341451
  Task:     3 matrix size:     590659
  Task:     4 matrix size:     822250
  Task:     5 matrix size:     951036
  Task:     6 matrix size:     967886
  Task:     7 matrix size:     218522
  Task:     8 matrix size:     238954
  Task:     9 matrix size:     421427
  Task:    10 matrix size:     326724
  Task:    11 matrix size:     493506
  Task:    12 matrix size:     978250
  Task:    13 matrix size:     849477
  Task:    14 matrix size:     351522
  Task:    15 matrix size:     827327
  Task:    16 matrix size:     860005
  Task:    17 matrix size:     335328
  Task:    18 matrix size:     130816
  Task:    19 matrix size:     400138
  Task:    20 matrix size:     217151
  Task:    21 matrix size:     420437
  Task:    22 matrix size:     351800
  Task:    23 matrix size:     162122
  Task:    24 matrix size:     936174
  Task:    25 matrix size:     945046
  Task:    26 matrix size:     538440
  Task:    27 matrix size:     293580
  Task:    28 matrix size:     370200
  Task:    29 matrix size:     932977
  Task:    30 matrix size:     925236
  Task:    31 matrix size:     147586
  Task:    32 matrix size:     292722
  Task:    33 matrix size:     517186
  Task:    34 matrix size:     332516
  Task:    35 matrix size:     252632
  Task:    36 matrix size:     243935
  Task:    37 matrix size:     248214
  Task:    38 matrix size:     819884
  Task:    39 matrix size:     772161
  Task:    40 matrix size:     563237
  Task:    41 matrix size:     309468
  Task:    42 matrix size:     915631
  Task:    43 matrix size:     568195
  Task:    44 matrix size:     322008
  Task:    45 matrix size:     563860
  Task:    46 matrix size:     322034
  Task:    47 matrix size:     262944
  Task:    48 matrix size:     169393
  Task:    49 matrix size:     948880
  Task:    50 matrix size:     889157
  Task:    51 matrix size:     604200
  Task:    52 matrix size:     501448
  Task:    53 matrix size:     424153
  Task:    54 matrix size:     213531
  Task:    55 matrix size:     146611
  Integrating Hamiltonian matrix: batch-based integration.
  Time summed over all CPUs for integration: real work      208.423 s, elapsed      395.837 s
  Time get_set_sparse_local_matrix_scalapack:     0.019216 s
  Start compute_balanced_batch_distribution
  Done load balancing, time needed:      0.010 s
  Integrating overlap matrix with loadbalancing
  Time summed over all CPUs for integration: real work       59.232 s, elapsed       71.721 s
  Time get_set_full_local_matrix_scalapack:     0.022088 s

  Updating Kohn-Sham eigenvalues and eigenvectors using ELSI and the ELPA eigensolver.
  Overlap matrix is not singular
  | Lowest and highest eigenvalues :  0.12E+02,  0.83E-04
  Finished singularity check of overlap matrix
  | Time :     0.132 s
  Finished Cholesky decomposition
  | Time :     0.029 s
  Finished transformation to standard eigenproblem
  | Time :     0.026 s
  Starting ELPA eigensolver
  Finished solving standard eigenproblem
  | Time :     0.142 s
  Finished back-transformation of eigenvectors
  | Time :     0.007 s

  Obtaining occupation numbers and chemical potential using ELSI.
  | Chemical potential (Fermi level):    -7.74658950 eV
  Writing Kohn-Sham eigenvalues.

  State    Occupation    Eigenvalue [Ha]    Eigenvalue [eV]
      1       2.00000         -10.173162         -276.82584
      2       2.00000         -10.173162         -276.82583
      3       2.00000         -10.173086         -276.82376
      4       2.00000         -10.173086         -276.82375
      5       2.00000         -10.172777         -276.81533
      6       2.00000         -10.172776         -276.81533
      7       2.00000         -10.172629         -276.81133
      8       2.00000         -10.172629         -276.81133
      9       2.00000         -10.172101         -276.79695
     10       2.00000         -10.172101         -276.79695
     11       2.00000         -10.172056         -276.79573
     12       2.00000         -10.172056         -276.79573
     13       2.00000         -10.171511         -276.78089
     14       2.00000         -10.171511         -276.78089
     15       2.00000         -10.171198         -276.77237
     16       2.00000         -10.171198         -276.77237
     17       2.00000         -10.171156         -276.77123
     18       2.00000         -10.171156         -276.77123
     19       2.00000         -10.170944         -276.76548
     20       2.00000         -10.170944         -276.76547
     21       2.00000         -10.163780         -276.57052
     22       2.00000         -10.163779         -276.57049
     23       2.00000         -10.163472         -276.56215
     24       2.00000         -10.163465         -276.56195
     25       2.00000         -10.163309         -276.55771
     26       2.00000         -10.163279         -276.55690
     27       2.00000         -10.163084         -276.55158
     28       2.00000         -10.163080         -276.55146
     29       2.00000         -10.163052         -276.55072
     30       2.00000         -10.163045         -276.55053
     31       2.00000         -10.162980         -276.54874
     32       2.00000         -10.162899         -276.54656
     33       2.00000         -10.162718         -276.54162
     34       2.00000         -10.162704         -276.54126
     35       2.00000         -10.162691         -276.54090
     36       2.00000         -10.162651         -276.53981
     37       2.00000         -10.162343         -276.53143
     38       2.00000         -10.162343         -276.53143
     39       2.00000         -10.160745         -276.48794
     40       2.00000         -10.160745         -276.48793
     41       2.00000          -1.025966          -27.91796
     42       2.00000          -1.009373          -27.46643
     43       2.00000          -1.004282          -27.32791
     44       2.00000          -0.994705          -27.06730
     45       2.00000          -0.988202          -26.89034
     46       2.00000          -0.978372          -26.62286
     47       2.00000          -0.957989          -26.06821
     48       2.00000          -0.951698          -25.89703
     49       2.00000          -0.928506          -25.26593
     50       2.00000          -0.914792          -24.89275
     51       2.00000          -0.914164          -24.87566
     52       2.00000          -0.898278          -24.44339
     53       2.00000          -0.891886          -24.26946
     54       2.00000          -0.885346          -24.09148
     55       2.00000          -0.883580          -24.04343
     56       2.00000          -0.874124          -23.78611
     57       2.00000          -0.873488          -23.76882
     58       2.00000          -0.856702          -23.31205
     59       2.00000          -0.848364          -23.08517
     60       2.00000          -0.842566          -22.92739
     61       2.00000          -0.793039          -21.57969
     62       2.00000          -0.783891          -21.33075
     63       2.00000          -0.777984          -21.17001
     64       2.00000          -0.777593          -21.15939
     65       2.00000          -0.774151          -21.06572
     66       2.00000          -0.754887          -20.54152
     67       2.00000          -0.752453          -20.47528
     68       2.00000          -0.736373          -20.03772
     69       2.00000          -0.731275          -19.89902
     70       2.00000          -0.726153          -19.75964
     71       2.00000          -0.725387          -19.73879
     72       2.00000          -0.706033          -19.21214
     73       2.00000          -0.684053          -18.61403
     74       2.00000          -0.683139          -18.58917
     75       2.00000          -0.679923          -18.50164
     76       2.00000          -0.666160          -18.12713
     77       2.00000          -0.659207          -17.93793
     78       2.00000          -0.645392          -17.56201
     79       2.00000          -0.643980          -17.52358
     80       2.00000          -0.640059          -17.41690
     81       2.00000          -0.627891          -17.08579
     82       2.00000          -0.624600          -16.99622
     83       2.00000          -0.624424          -16.99144
     84       2.00000          -0.617746          -16.80971
     85       2.00000          -0.605037          -16.46390
     86       2.00000          -0.602099          -16.38395
     87       2.00000          -0.598609          -16.28899
     88       2.00000          -0.598253          -16.27929
     89       2.00000          -0.592752          -16.12961
     90       2.00000          -0.580704          -15.80177
     91       2.00000          -0.579689          -15.77413
     92       2.00000          -0.577728          -15.72077
     93       2.00000          -0.570951          -15.53637
     94       2.00000          -0.570462          -15.52307
     95       2.00000          -0.566307          -15.41001
     96       2.00000          -0.566048          -15.40295
     97       2.00000          -0.562985          -15.31959
     98       2.00000          -0.557344          -15.16609
     99       2.00000          -0.546273          -14.86484
    100       2.00000          -0.542550          -14.76353
    101       2.00000          -0.534348          -14.54036
    102       2.00000          -0.529853          -14.41803
    103       2.00000          -0.525293          -14.29394
    104       2.00000          -0.522636          -14.22165
    105       2.00000          -0.517952          -14.09419
    106       2.00000          -0.514093          -13.98919
    107       2.00000          -0.511831          -13.92763
    108       2.00000          -0.508018          -13.82386
    109       2.00000          -0.505164          -13.74621
    110       2.00000          -0.504639          -13.73191
    111       2.00000          -0.498378          -13.56157
    112       2.00000          -0.493661          -13.43321
    113       2.00000          -0.488157          -13.28344
    114       2.00000          -0.486257          -13.23173
    115       2.00000          -0.485206          -13.20312
    116       2.00000          -0.476278          -12.96017
    117       2.00000          -0.462711          -12.59101
    118       2.00000          -0.460301          -12.52544
    119       2.00000          -0.440997          -12.00014
    120       2.00000          -0.429396          -11.68445
    121       2.00000          -0.426428          -11.60371
    122       2.00000          -0.405461          -11.03315
    123       2.00000          -0.404268          -11.00069
    124       2.00000          -0.403668          -10.98437
    125       2.00000          -0.401443          -10.92382
    126       2.00000          -0.393245          -10.70074
    127       2.00000          -0.389331          -10.59423
    128       2.00000          -0.367914          -10.01144
    129       2.00000          -0.358987           -9.76854
    130       2.00000          -0.345898           -9.41237
    131       0.00000          -0.262304           -7.13766
    132       0.00000          -0.251878           -6.85395
    133       0.00000          -0.246113           -6.69708
    134       0.00000          -0.222763           -6.06168
    135       0.00000          -0.216668           -5.89585
    136       0.00000          -0.213223           -5.80209
    137       0.00000          -0.208733           -5.67991
    138       0.00000          -0.207658           -5.65067
    139       0.00000          -0.200287           -5.45008
    140       0.00000          -0.175927           -4.78722
    141       0.00000          -0.167806           -4.56623
    142       0.00000          -0.159491           -4.33998
    143       0.00000          -0.125752           -3.42188
    144       0.00000          -0.124956           -3.40021
    145       0.00000          -0.098252           -2.67358
    146       0.00000          -0.074130           -2.01718
    147       0.00000          -0.070165           -1.90928
    148       0.00000          -0.069814           -1.89974
    149       0.00000          -0.069680           -1.89609
    150       0.00000          -0.066471           -1.80876
    151       0.00000          -0.062172           -1.69179
    152       0.00000          -0.058189           -1.58340
    153       0.00000          -0.050390           -1.37117
    154       0.00000          -0.044957           -1.22334
    155       0.00000          -0.043636           -1.18739
    156       0.00000          -0.037341           -1.01610
    157       0.00000          -0.036122           -0.98293
    158       0.00000          -0.031476           -0.85651
    159       0.00000          -0.024369           -0.66311
    160       0.00000          -0.021878           -0.59534
    161       0.00000          -0.018086           -0.49216
    162       0.00000          -0.015168           -0.41274
    163       0.00000          -0.013176           -0.35854
    164       0.00000          -0.009103           -0.24772
    165       0.00000          -0.007425           -0.20205
    166       0.00000          -0.005139           -0.13985
    167       0.00000          -0.000765           -0.02083
    168       0.00000           0.002575            0.07006
    169       0.00000           0.004397            0.11964
    170       0.00000           0.005672            0.15434
    171       0.00000           0.008256            0.22465
    172       0.00000           0.011468            0.31205
    173       0.00000           0.015298            0.41627
    174       0.00000           0.016623            0.45234
    175       0.00000           0.019325            0.52585
    176       0.00000           0.024039            0.65414
    177       0.00000           0.026438            0.71942
    178       0.00000           0.027878            0.75859
    179       0.00000           0.029126            0.79255
    180       0.00000           0.032104            0.87360
    181       0.00000           0.036466            0.99229
    182       0.00000           0.038752            1.05449
    183       0.00000           0.039586            1.07719
    184       0.00000           0.041576            1.13133
    185       0.00000           0.042394            1.15359
    186       0.00000           0.045307            1.23287
    187       0.00000           0.048436            1.31800
    188       0.00000           0.052890            1.43921
    189       0.00000           0.053768            1.46311
    190       0.00000           0.055297            1.50470
    191       0.00000           0.061153            1.66406
    192       0.00000           0.061493            1.67331
    193       0.00000           0.064584            1.75741
    194       0.00000           0.065119            1.77199
    195       0.00000           0.065192            1.77396
    196       0.00000           0.066737            1.81601
    197       0.00000           0.067535            1.83771
    198       0.00000           0.070909            1.92952
    199       0.00000           0.079171            2.15436
    200       0.00000           0.079392            2.16036
    201       0.00000           0.084221            2.29177
    202       0.00000           0.085113            2.31606
    203       0.00000           0.085787            2.33438
    204       0.00000           0.086468            2.35291
    205       0.00000           0.086723            2.35985
    206       0.00000           0.093594            2.54682
    207       0.00000           0.097519            2.65363
    208       0.00000           0.098808            2.68869
    209       0.00000           0.099025            2.69460
    210       0.00000           0.105471            2.87001
    211       0.00000           0.109802            2.98788
    212       0.00000           0.109892            2.99031
    213       0.00000           0.110298            3.00137
    214       0.00000           0.111066            3.02227
    215       0.00000           0.113410            3.08604
    216       0.00000           0.114304            3.11037
    217       0.00000           0.120152            3.26950
    218       0.00000           0.122062            3.32147
    219       0.00000           0.122951            3.34567
    220       0.00000           0.127811            3.47793
    221       0.00000           0.129929            3.53555
    222       0.00000           0.132074            3.59391
    223       0.00000           0.132756            3.61248
    224       0.00000           0.133201            3.62458
    225       0.00000           0.139684            3.80100
    226       0.00000           0.142330            3.87298
    227       0.00000           0.144330            3.92741
    228       0.00000           0.150216            4.08759
    229       0.00000           0.153136            4.16704
    230       0.00000           0.153317            4.17196
    231       0.00000           0.154452            4.20285
    232       0.00000           0.155189            4.22290
    233       0.00000           0.155609            4.23433
    234       0.00000           0.158751            4.31982
    235       0.00000           0.161183            4.38600
    236       0.00000           0.167822            4.56668
    237       0.00000           0.173805            4.72948
    238       0.00000           0.174200            4.74021
    239       0.00000           0.175898            4.78642
    240       0.00000           0.176245            4.79588
    241       0.00000           0.178102            4.84641
    242       0.00000           0.182592            4.96859
    243       0.00000           0.184789            5.02835
    244       0.00000           0.185321            5.04283
    245       0.00000           0.185431            5.04585
    246       0.00000           0.186102            5.06410
    247       0.00000           0.188702            5.13484
    248       0.00000           0.189322            5.15171
    249       0.00000           0.198059            5.38946
    250       0.00000           0.198508            5.40167
    251       0.00000           0.198839            5.41067
    252       0.00000           0.201082            5.47172
    253       0.00000           0.204999            5.57832
    254       0.00000           0.205200            5.58379
    255       0.00000           0.206534            5.62007
    256       0.00000           0.209608            5.70371
    257       0.00000           0.212068            5.77068
    258       0.00000           0.213924            5.82118
    259       0.00000           0.217639            5.92225
    260       0.00000           0.223896            6.09253
    261       0.00000           0.225740            6.14269
    262       0.00000           0.226091            6.15225
    263       0.00000           0.229168            6.23599
    264       0.00000           0.231765            6.30664
    265       0.00000           0.232006            6.31320
    266       0.00000           0.238808            6.49830
    267       0.00000           0.250102            6.80563
    268       0.00000           0.252907            6.88194
    269       0.00000           0.253055            6.88597
    270       0.00000           0.255682            6.95747
    271       0.00000           0.258275            7.02802
    272       0.00000           0.263702            7.17569
    273       0.00000           0.265313            7.21954
    274       0.00000           0.266713            7.25764
    275       0.00000           0.267442            7.27747
    276       0.00000           0.269147            7.32387
    277       0.00000           0.269676            7.33826
    278       0.00000           0.275869            7.50678
    279       0.00000           0.276833            7.53302
    280       0.00000           0.287379            7.81998

  Highest occupied state (VBM) at     -9.41236899 eV
  | Occupation number:      2.00000000

  Lowest unoccupied state (CBM) at    -7.13765712 eV
  | Occupation number:      0.00000000

  Overall HOMO-LUMO gap:      2.27471188 eV.
  Calculating total energy contributions from superposition of free atom densities.

  Total energy components:
  | Sum of eigenvalues            :        -930.13036745 Ha      -25310.13506375 eV
  | XC energy correction          :        -219.43561822 Ha       -5971.14698025 eV
  | XC potential correction       :         281.87153361 Ha        7670.11468080 eV
  | Free-atom electrostatic energy:        -669.84435839 Ha      -18227.39239130 eV
  | Hartree energy correction     :           0.00000000 Ha           0.00000000 eV
  | Entropy correction            :           0.00000000 Ha           0.00000000 eV
  | ---------------------------
  | Total energy                  :       -1537.53881044 Ha      -41838.55975450 eV
  | Total energy, T -> 0          :       -1537.53881044 Ha      -41838.55975450 eV  <-- do not rely on this value for anything but (periodic) metals
  | Electronic free energy        :       -1537.53881044 Ha      -41838.55975450 eV

  Derived energy quantities:
  | Kinetic energy                :        1524.56192163 Ha       41485.44064356 eV
  | Electrostatic energy          :       -2842.66511385 Ha      -77352.85341780 eV
  | Energy correction for multipole
  | error in Hartree potential    :           0.00000000 Ha           0.00000000 eV
  | Sum of eigenvalues per atom                           :        -421.83558440 eV
  | Total energy (T->0) per atom                          :        -697.30932924 eV  <-- do not rely on this value for anything but (periodic) metals
  | Electronic free energy per atom                       :        -697.30932924 eV
  Initialize hartree_potential_storage
  Max. number of atoms included in rho_multipole:           60

  End scf initialization - timings             :  max(cpu_time)    wall_clock(cpu1)
  | Time for scf. initialization               :       10.945 s          11.006 s
  | Boundary condition initialization          :        0.000 s           0.003 s
  | Integration                                :        8.423 s           8.429 s
  | Solution of K.-S. eqns.                    :        0.357 s           0.374 s
  | Grid partitioning                          :        0.966 s           0.971 s
  | Preloading free-atom quantities on grid    :        0.013 s           0.017 s
  | Free-atom superposition energy             :        0.086 s           0.086 s
  | Total energy evaluation                    :        0.001 s           0.005 s

  Partial memory accounting:
  | Current value for overall tracked memory usage on task 0  :           6.689 MB
  | Peak value for overall tracked memory usage on task 0     :          33.666 MB after allocating zora_vector2
  | Largest tracked array allocation on task 0 so far         :           9.418 MB  when allocating hamiltonian_shell
  Note:  These values currently only include a subset of arrays which are explicitly tracked.
  The "true" memory usage will be greater.
------------------------------------------------------------

------------------------------------------------------------
          Begin self-consistency iteration #    1

  Date     :  20210620, Time     :  174628.732
------------------------------------------------------------
  Evaluating new KS density.
  Integration grid: deviation in total charge (<rho> - N_e) =   1.136868E-13
  Pulay mixing of updated and previous charge densities.

  Evaluating partitioned Hartree potential by multipole expansion.
  | Analytical far-field extrapolation by fixed multipoles:
  | Hartree multipole sum: apparent total charge =  -0.531565E-03
  Summing up the Hartree potential with load balancing.
  Time summed over all CPUs for potential: real work       37.331 s, elapsed       65.104 s
  | RMS charge density error from multipole expansion :   0.153619E-01

  Start compute_balanced_batch_distribution
  Done load balancing, time needed:      0.009 s
  Integrating Hamiltonian matrix: batch-based integration with load balancing
  Time summed over all CPUs for integration: real work      229.929 s, elapsed      250.934 s
  Time get_set_full_local_matrix_scalapack:     0.022355 s
  Start compute_balanced_batch_distribution
  Done load balancing, time needed:      0.009 s

  Updating Kohn-Sham eigenvalues and eigenvectors using ELSI and the ELPA eigensolver.
  Finished transformation to standard eigenproblem
  | Time :     0.028 s
  Starting ELPA eigensolver
  Finished solving standard eigenproblem
  | Time :     0.142 s
  Finished back-transformation of eigenvectors
  | Time :     0.007 s

  Obtaining occupation numbers and chemical potential using ELSI.
  | Chemical potential (Fermi level):    -5.74276343 eV
  Writing Kohn-Sham eigenvalues.

  State    Occupation    Eigenvalue [Ha]    Eigenvalue [eV]
      1       2.00000          -9.996312         -272.01348
      2       2.00000          -9.996311         -272.01347
      3       2.00000          -9.995880         -272.00173
      4       2.00000          -9.995880         -272.00172
      5       2.00000          -9.993189         -271.92850
      6       2.00000          -9.993177         -271.92819
      7       2.00000          -9.992883         -271.92019
      8       2.00000          -9.992873         -271.91991
      9       2.00000          -9.986070         -271.73479
     10       2.00000          -9.986070         -271.73479
     11       2.00000          -9.985482         -271.71879
     12       2.00000          -9.985482         -271.71879
     13       2.00000          -9.984597         -271.69471
     14       2.00000          -9.984597         -271.69471
     15       2.00000          -9.984150         -271.68255
     16       2.00000          -9.984150         -271.68255
     17       2.00000          -9.982741         -271.64420
     18       2.00000          -9.982741         -271.64420
     19       2.00000          -9.982644         -271.64155
     20       2.00000          -9.982643         -271.64155
     21       2.00000          -9.955504         -270.90304
     22       2.00000          -9.955504         -270.90303
     23       2.00000          -9.954951         -270.88799
     24       2.00000          -9.954951         -270.88799
     25       2.00000          -9.950991         -270.78024
     26       2.00000          -9.950991         -270.78024
     27       2.00000          -9.950685         -270.77190
     28       2.00000          -9.950684         -270.77190
     29       2.00000          -9.948524         -270.71310
     30       2.00000          -9.948523         -270.71310
     31       2.00000          -9.947861         -270.69506
     32       2.00000          -9.947860         -270.69506
     33       2.00000          -9.944073         -270.59201
     34       2.00000          -9.944073         -270.59200
     35       2.00000          -9.943634         -270.58005
     36       2.00000          -9.943634         -270.58004
     37       2.00000          -9.943532         -270.57728
     38       2.00000          -9.943532         -270.57728
     39       2.00000          -9.942697         -270.55454
     40       2.00000          -9.942696         -270.55453
     41       2.00000          -0.896266          -24.38864
     42       2.00000          -0.872828          -23.75086
     43       2.00000          -0.865086          -23.54018
     44       2.00000          -0.846909          -23.04558
     45       2.00000          -0.842516          -22.92604
     46       2.00000          -0.827624          -22.52079
     47       2.00000          -0.814732          -22.16998
     48       2.00000          -0.813557          -22.13801
     49       2.00000          -0.786795          -21.40978
     50       2.00000          -0.778966          -21.19674
     51       2.00000          -0.776280          -21.12366
     52       2.00000          -0.756251          -20.57864
     53       2.00000          -0.746791          -20.32122
     54       2.00000          -0.742593          -20.20699
     55       2.00000          -0.737101          -20.05755
     56       2.00000          -0.736434          -20.03940
     57       2.00000          -0.730398          -19.87514
     58       2.00000          -0.712458          -19.38696
     59       2.00000          -0.705055          -19.18553
     60       2.00000          -0.702888          -19.12656
     61       2.00000          -0.656412          -17.86188
     62       2.00000          -0.650809          -17.70942
     63       2.00000          -0.642414          -17.48098
     64       2.00000          -0.638468          -17.37361
     65       2.00000          -0.637637          -17.35099
     66       2.00000          -0.618995          -16.84371
     67       2.00000          -0.617266          -16.79667
     68       2.00000          -0.596674          -16.23633
     69       2.00000          -0.596367          -16.22798
     70       2.00000          -0.589485          -16.04071
     71       2.00000          -0.588139          -16.00407
     72       2.00000          -0.569109          -15.48623
     73       2.00000          -0.553698          -15.06688
     74       2.00000          -0.549701          -14.95813
     75       2.00000          -0.548509          -14.92569
     76       2.00000          -0.534183          -14.53587
     77       2.00000          -0.530042          -14.42318
     78       2.00000          -0.506682          -13.78752
     79       2.00000          -0.505554          -13.75683
     80       2.00000          -0.505213          -13.74755
     81       2.00000          -0.497712          -13.54345
     82       2.00000          -0.495761          -13.49035
     83       2.00000          -0.490383          -13.34400
     84       2.00000          -0.474142          -12.90207
     85       2.00000          -0.473004          -12.87110
     86       2.00000          -0.465759          -12.67395
     87       2.00000          -0.463895          -12.62321
     88       2.00000          -0.456614          -12.42510
     89       2.00000          -0.450227          -12.25130
     90       2.00000          -0.448935          -12.21613
     91       2.00000          -0.448539          -12.20537
     92       2.00000          -0.443234          -12.06100
     93       2.00000          -0.441415          -12.01151
     94       2.00000          -0.439585          -11.96171
     95       2.00000          -0.438378          -11.92888
     96       2.00000          -0.435073          -11.83894
     97       2.00000          -0.434963          -11.83595
     98       2.00000          -0.432581          -11.77114
     99       2.00000          -0.418140          -11.37816
    100       2.00000          -0.412675          -11.22945
    101       2.00000          -0.409337          -11.13862
    102       2.00000          -0.406082          -11.05005
    103       2.00000          -0.403017          -10.96666
    104       2.00000          -0.399030          -10.85815
    105       2.00000          -0.391125          -10.64305
    106       2.00000          -0.383338          -10.43116
    107       2.00000          -0.379128          -10.31661
    108       2.00000          -0.377791          -10.28021
    109       2.00000          -0.377222          -10.26474
    110       2.00000          -0.373349          -10.15934
    111       2.00000          -0.372125          -10.12605
    112       2.00000          -0.365058           -9.93374
    113       2.00000          -0.361423           -9.83482
    114       2.00000          -0.354088           -9.63522
    115       2.00000          -0.350411           -9.53516
    116       2.00000          -0.348966           -9.49585
    117       2.00000          -0.347616           -9.45910
    118       2.00000          -0.333181           -9.06632
    119       2.00000          -0.322262           -8.76919
    120       2.00000          -0.313602           -8.53355
    121       2.00000          -0.308458           -8.39356
    122       2.00000          -0.286974           -7.80896
    123       2.00000          -0.279561           -7.60724
    124       2.00000          -0.279015           -7.59239
    125       2.00000          -0.276299           -7.51847
    126       2.00000          -0.275576           -7.49880
    127       2.00000          -0.273952           -7.45461
    128       2.00000          -0.244985           -6.66638
    129       2.00000          -0.238887           -6.50044
    130       2.00000          -0.227966           -6.20328
    131       0.00000          -0.145515           -3.95966
    132       0.00000          -0.134019           -3.64684
    133       0.00000          -0.128244           -3.48970
    134       0.00000          -0.109344           -2.97539
    135       0.00000          -0.101902           -2.77289
    136       0.00000          -0.093324           -2.53946
    137       0.00000          -0.087977           -2.39398
    138       0.00000          -0.087912           -2.39222
    139       0.00000          -0.080507           -2.19071
    140       0.00000          -0.057961           -1.57719
[...]
    110       2.00000          -0.314921           -8.56944
    111       2.00000          -0.310747           -8.45587
    112       2.00000          -0.309035           -8.40928
    113       2.00000          -0.303193           -8.25029
    114       2.00000          -0.302440           -8.22982
    115       2.00000          -0.297747           -8.10211
    116       2.00000          -0.290177           -7.89611
    117       2.00000          -0.280248           -7.62595
    118       2.00000          -0.279356           -7.60165
    119       2.00000          -0.270082           -7.34932
    120       2.00000          -0.265580           -7.22679
    121       2.00000          -0.264494           -7.19725
    122       2.00000          -0.241417           -6.56928
    123       2.00000          -0.237598           -6.46536
    124       2.00000          -0.237079           -6.45123
    125       2.00000          -0.233705           -6.35945
    126       2.00000          -0.230271           -6.26600
    127       2.00000          -0.227178           -6.18183
    128       2.00000          -0.200446           -5.45442
    129       2.00000          -0.193627           -5.26885
    130       2.00000          -0.180530           -4.91246
    131       0.00000          -0.097462           -2.65209
    132       0.00000          -0.087746           -2.38768
    133       0.00000          -0.083235           -2.26493
    134       0.00000          -0.064328           -1.75046
    135       0.00000          -0.053826           -1.46468
    136       0.00000          -0.050680           -1.37908
    137       0.00000          -0.044903           -1.22188
    138       0.00000          -0.043429           -1.18176
    139       0.00000          -0.033898           -0.92240
    140       0.00000          -0.012178           -0.33139
    141       0.00000          -0.008123           -0.22103
    142       0.00000          -0.004584           -0.12474
    143       0.00000          -0.004230           -0.11510
    144       0.00000          -0.003418           -0.09300
    145       0.00000           0.004148            0.11288
    146       0.00000           0.004826            0.13132
    147       0.00000           0.006635            0.18055
    148       0.00000           0.016775            0.45648
    149       0.00000           0.018871            0.51350
    150       0.00000           0.030617            0.83313
    151       0.00000           0.031651            0.86126
    152       0.00000           0.039628            1.07832
    153       0.00000           0.039772            1.08226
    154       0.00000           0.040204            1.09402
    155       0.00000           0.044391            1.20793
    156       0.00000           0.050259            1.36762
    157       0.00000           0.052076            1.41707
    158       0.00000           0.055412            1.50783
    159       0.00000           0.061927            1.68511
    160       0.00000           0.063411            1.72551
    161       0.00000           0.068896            1.87476
    162       0.00000           0.075018            2.04134
    163       0.00000           0.082824            2.25376
    164       0.00000           0.092289            2.51130
    165       0.00000           0.093243            2.53727
    166       0.00000           0.096522            2.62651
    167       0.00000           0.098134            2.67037
    168       0.00000           0.101112            2.75139
    169       0.00000           0.104675            2.84835
    170       0.00000           0.105291            2.86511
    171       0.00000           0.113687            3.09359
    172       0.00000           0.117775            3.20483
    173       0.00000           0.118756            3.23152
    174       0.00000           0.120287            3.27317
    175       0.00000           0.123510            3.36089
    176       0.00000           0.124376            3.38444
    177       0.00000           0.131488            3.57798
    178       0.00000           0.134774            3.66739
    179       0.00000           0.135396            3.68430
    180       0.00000           0.141056            3.83834
    181       0.00000           0.142748            3.88436
    182       0.00000           0.147089            4.00249
    183       0.00000           0.147234            4.00643
    184       0.00000           0.147295            4.00811
    185       0.00000           0.151004            4.10904
    186       0.00000           0.153175            4.16810
    187       0.00000           0.162519            4.42237
    188       0.00000           0.163440            4.44743
    189       0.00000           0.163767            4.45634
    190       0.00000           0.166604            4.53354
    191       0.00000           0.167847            4.56735
    192       0.00000           0.173693            4.72642
    193       0.00000           0.173966            4.73386
    194       0.00000           0.176238            4.79569
    195       0.00000           0.176870            4.81288
    196       0.00000           0.183811            5.00176
    197       0.00000           0.185519            5.04822
    198       0.00000           0.185785            5.05547
    199       0.00000           0.186440            5.07330
    200       0.00000           0.187518            5.10263
    201       0.00000           0.190192            5.17538
    202       0.00000           0.193709            5.27109
    203       0.00000           0.194006            5.27917
    204       0.00000           0.194740            5.29914
    205       0.00000           0.196614            5.35015
    206       0.00000           0.197352            5.37023
    207       0.00000           0.198421            5.39930
    208       0.00000           0.199372            5.42518
    209       0.00000           0.206208            5.61121
    210       0.00000           0.209961            5.71334
    211       0.00000           0.210007            5.71458
    212       0.00000           0.211232            5.74793
    213       0.00000           0.216449            5.88988
    214       0.00000           0.218901            5.95660
    215       0.00000           0.220312            5.99499
    216       0.00000           0.223070            6.07005
    217       0.00000           0.227000            6.17698
    218       0.00000           0.228507            6.21800
    219       0.00000           0.230245            6.26528
    220       0.00000           0.234245            6.37413
    221       0.00000           0.235095            6.39727
    222       0.00000           0.238844            6.49927
    223       0.00000           0.239061            6.50517
    224       0.00000           0.239488            6.51679
    225       0.00000           0.244116            6.64274
    226       0.00000           0.248139            6.75219
    227       0.00000           0.249872            6.79936
    228       0.00000           0.251701            6.84913
    229       0.00000           0.254419            6.92309
    230       0.00000           0.254565            6.92707
    231       0.00000           0.255652            6.95666
    232       0.00000           0.259553            7.06281
    233       0.00000           0.261500            7.11577
    234       0.00000           0.266342            7.24753
    235       0.00000           0.268122            7.29598
    236       0.00000           0.270773            7.36811
    237       0.00000           0.271688            7.39300
    238       0.00000           0.275674            7.50148
    239       0.00000           0.280529            7.63359
    240       0.00000           0.282620            7.69049
    241       0.00000           0.285502            7.76892
    242       0.00000           0.289703            7.88322
    243       0.00000           0.291366            7.92847
    244       0.00000           0.292703            7.96485
    245       0.00000           0.293833            7.99561
    246       0.00000           0.298637            8.12632
    247       0.00000           0.300052            8.16484
    248       0.00000           0.302563            8.23317
    249       0.00000           0.306345            8.33609
    250       0.00000           0.308366            8.39105
    251       0.00000           0.310160            8.43989
    252       0.00000           0.311600            8.47906
    253       0.00000           0.311918            8.48773
    254       0.00000           0.314934            8.56980
    255       0.00000           0.317090            8.62845
    256       0.00000           0.322745            8.78233
    257       0.00000           0.323876            8.81311
    258       0.00000           0.323905            8.81390
    259       0.00000           0.333462            9.07396
    260       0.00000           0.333487            9.07464
    261       0.00000           0.335657            9.13369
    262       0.00000           0.341266            9.28631
    263       0.00000           0.342933            9.33168
    264       0.00000           0.349886            9.52088
    265       0.00000           0.351066            9.55300
    266       0.00000           0.353265            9.61283
    267       0.00000           0.354719            9.65238
    268       0.00000           0.362528            9.86488
    269       0.00000           0.364138            9.90871
    270       0.00000           0.371281           10.10306
    271       0.00000           0.371629           10.11254
    272       0.00000           0.373845           10.17283
    273       0.00000           0.378447           10.29807
    274       0.00000           0.378696           10.30484
    275       0.00000           0.380743           10.36054
    276       0.00000           0.382166           10.39927
    277       0.00000           0.382785           10.41611
    278       0.00000           0.385207           10.48203
    279       0.00000           0.390122           10.61576
    280       0.00000           0.392139           10.67064

  Highest occupied state (VBM) at     -4.91246117 eV
  | Occupation number:      2.00000000

  Lowest unoccupied state (CBM) at    -2.65208631 eV
  | Occupation number:      0.00000000

  Overall HOMO-LUMO gap:      2.26037485 eV.

  Total energy components:
  | Sum of eigenvalues            :        -874.84315518 Ha      -23805.69347289 eV
  | XC energy correction          :        -223.20765702 Ha       -6073.78937861 eV
  | XC potential correction       :         286.74580497 Ha        7802.75035279 eV
  | Free-atom electrostatic energy:        -669.84435839 Ha      -18227.39239130 eV
  | Hartree energy correction     :         -54.63345363 Ha       -1486.65191322 eV
  | Entropy correction            :           0.00000000 Ha           0.00000000 eV
  | ---------------------------
  | Total energy                  :       -1535.78281925 Ha      -41790.77680323 eV
  | Total energy, T -> 0          :       -1535.78281925 Ha      -41790.77680323 eV  <-- do not rely on this value for anything but (periodic) metals
  | Electronic free energy        :       -1535.78281925 Ha      -41790.77680323 eV

  Derived energy quantities:
  | Kinetic energy                :        1531.53041916 Ha       41675.06310929 eV
  | Electrostatic energy          :       -2844.10558139 Ha      -77392.05053390 eV
  | Energy correction for multipole
  | error in Hartree potential    :          -0.19351558 Ha          -5.26582679 eV
  | Sum of eigenvalues per atom                           :        -396.76155788 eV
  | Total energy (T->0) per atom                          :        -696.51294672 eV  <-- do not rely on this value for anything but (periodic) metals
  | Electronic free energy per atom                       :        -696.51294672 eV
  End evaluation of scaled ZORA corrections.
  | Time for scaled ZORA corrections           :        7.733 s           7.734 s
------------------------------------------------------------

  Energy and forces in a compact form:
  | Total energy uncorrected      :         -0.417907768032258E+05 eV
  | Total energy corrected        :         -0.417907768032258E+05 eV  <-- do not rely on this value for anything but (periodic) metals
  | Electronic free energy        :         -0.417907768032258E+05 eV

  ------------------------------------ 
  Start decomposition of the XC Energy 
  ------------------------------------ 
  X and C from original XC functional choice 
  Hartree-Fock Energy :          0.000000000 Ha              0.000000000 eV
  X Energy            :       -214.424187358 Ha          -5834.779008297 eV
  C Energy            :         -8.783469665 Ha           -239.010370311 eV
  Total XC Energy     :       -223.207657023 Ha          -6073.789378608 eV
  ------------------------------------ 
  LDA X and C from self-consistent density 
  X Energy LDA        :       -194.268286605 Ha          -5286.309042958 eV
  C Energy LDA        :        -16.864017370 Ha           -458.893260872 eV
  ------------------------------------ 
  End decomposition of the XC Energy 
  ------------------------------------ 

------------------------------------------------------------

------------------------------------------------------------------------------
  Final output of selected total energy values:

  The following output summarizes some interesting total energy values
  at the end of a run (AFTER all relaxation, molecular dynamics, etc.).

  | Total energy of the DFT / Hartree-Fock s.c.f. calculation      :         -41790.776803226 eV
  | Final zero-broadening corrected energy (caution - metals only) :         -41790.776803226 eV
  | For reference only, the value of 1 Hartree used in FHI-aims is :             27.211384500 eV

  Before relying on these values, please be sure to understand exactly which
  total energy value is referred to by a given number. Different objects may
  all carry the same name 'total energy'. Definitions:

  Total energy of the DFT / Hartree-Fock s.c.f. calculation:
  | Note that this energy does not include ANY quantities calculated after the
  | s.c.f. cycle, in particular not ANY RPA, MP2, etc. many-body perturbation terms.
  | Scalar relativistic effects have been included in the 'scaled ZORA' approximation.

  Final zero-broadening corrected energy:
  | For metallic systems only, a broadening of the occupation numbers at the Fermi
  | level can be extrapolated back to zero broadening by an electron-gas inspired
  | formula. For all systems that are not real metals, this value can be
  | meaningless and should be avoided.

------------------------------------------------------------------------------
  Methods described in the following list of references were used in this FHI-aims run.
  If you publish the results, please make sure to cite these reference if they apply.
  FHI-aims is an academic code, and for our developers (often, Ph.D. students
  and postdocs), scientific credit in the community is essential.
  Thank you for helping us!

  For any use of FHI-aims, please cite:

    Volker Blum, Ralf Gehrke, Felix Hanke, Paula Havu, Ville Havu,
    Xinguo Ren, Karsten Reuter, and Matthias Scheffler
    'Ab initio molecular simulations with numeric atom-centered orbitals'
    Computer Physics Communications 180, 2175-2196 (2009)
    http://dx.doi.org/10.1016/j.cpc.2009.06.022


  The scalable eigensolver library ELPA was used in your run.
  ELPA is essential especially for large systems on hundreds or thousands of CPUs.
  For ELPA, please cite:

    Andreas Marek, Volker Blum, Rainer Johanni, Ville Havu, Bruno Lang,
    Thomas Auckenthaler, Alexander Heinecke, Hans-Joachim Bungartz, and Hermann Lederer,
    'The ELPA Library - Scalable Parallel Eigenvalue Solutions
    for Electronic Structure Theory and Computational Science'
    The Journal of Physics: Condensed Matter 26, 213201 (2014).
    http://dx.doi.org/10.1088/0953-8984/26/21/213201


  The ELSI infrastructure was used in your run to solve the Kohn-Sham electronic structure.
  Please check out http://elsi-interchange.org to learn more.
  If scalability is important for your project, please acknowledge ELSI by citing:

    V. W-z. Yu, F. Corsetti, A. Garcia, W. P. Huhn, M. Jacquelin, W. Jia,
    B. Lange, L. Lin, J. Lu, W. Mi, A. Seifitokaldani, A. Vazquez-Mayagoitia,
    C. Yang, H. Yang, and V. Blum
    'ELSI: A unified software interface for Kohn-Sham electronic structure solvers'
    Computer Physics Communications 222, 267-285 (2018).
    http://dx.doi.org/10.1016/j.cpc.2017.09.007


  For the real-space grid partitioning and parallelization used in this calculation, please cite:

    Ville Havu, Volker Blum, Paula Havu, and Matthias Scheffler,
    'Efficient O(N) integration for all-electron electronic structure calculation'
    'using numerically tabulated basis functions'
    Journal of Computational Physics 228, 8367-8379 (2009).
    http://dx.doi.org/10.1016/j.jcp.2009.08.008

  Of course, there are many other important community references, e.g., those cited in the
  above references. Our list is limited to references that describe implementations in the
  FHI-aims code. The reason is purely practical (length of this list) - please credit others as well.

------------------------------------------------------------
          Leaving FHI-aims.
          Date     :  20210620, Time     :  174834.887

          Computational steps:
          | Number of self-consistency cycles          :           16
          | Number of SCF (re)initializations          :            1

          Detailed time accounting                     :  max(cpu_time)    wall_clock(cpu1)
          | Total time                                 :      137.348 s         137.543 s
          | Preparation time                           :        0.191 s           0.174 s
          | Boundary condition initalization           :        0.000 s           0.003 s
          | Grid partitioning                          :        0.966 s           0.971 s
          | Preloading free-atom quantities on grid    :        0.013 s           0.017 s
          | Free-atom superposition energy             :        0.086 s           0.086 s
          | Total time for integrations                :       77.979 s          77.988 s
          | Total time for solution of K.-S. equations :        4.126 s           4.148 s
          | Total time for density update              :       32.087 s          32.033 s
          | Total time for mixing                      :        0.159 s           0.161 s
          | Total time for Hartree multipole update    :        0.195 s           0.203 s
          | Total time for Hartree multipole sum       :       12.458 s          12.460 s
          | Total time for total energy evaluation     :        0.008 s           0.034 s
          | Total time for scaled ZORA corrections     :        7.733 s           7.734 s

          Partial memory accounting:
          | Residual value for overall tracked memory usage across tasks :     0.000000 MB (should be 0.000000 MB)
          | Peak values for overall tracked memory usage (after allocating zora_vector2):
          |   Minimum:       33.362 MB (on task 19)
          |   Maximum:       42.570 MB (on task 13)
          |   Average:       37.643 MB
          | Largest tracked array allocation (hamiltonian_shell):
          |   Minimum:        9.418 MB (on task  1)
          |   Maximum:        9.418 MB (on task  1)
          |   Average:        9.418 MB
          Note:  These values currently only include a subset of arrays which are explicitly tracked.
          The "true" memory usage will be greater.

          Have a nice day.
------------------------------------------------------------
