  MPI-parallelism will be employed.
------------------------------------------------------------
          Invoking FHI-aims ...
          Version 180607
          Git rev. (modified): 6724847 Fix JSON memory corruption in scf_solver
          Compiled on 2018/06/27 at 16:00:31 on host coe.psc.edu.

          When using FHI-aims, please cite the following reference:

          Volker Blum, Ralf Gehrke, Felix Hanke, Paula Havu,
          Ville Havu, Xinguo Ren, Karsten Reuter, and Matthias Scheffler,
          'Ab Initio Molecular Simulations with Numeric Atom-Centered Orbitals',
          Computer Physics Communications 180, 2175-2196 (2009)

          For any questions about FHI-aims, please visit the aimsclub website
          with its forums and wiki. Contributions to both the forums and the
          wiki are warmly encouraged - they are for you, and everyone is welcome there.

------------------------------------------------------------



  Date     :  20210620, Time     :  164034.506
  Time zero on CPU 1             :   0.211822000000000E+00  s.
  Internal wall clock time zero  :           393439234.506  s.

  FHI-aims created a unique identifier for this run for later identification
  aims_uuid : 7981D459-415B-4F28-A630-FA16EF80F1F0

  Using       56 parallel tasks.
  Task        0 on host d021 reporting.
  Task        1 on host d021 reporting.
  Task        2 on host d021 reporting.
  Task        3 on host d021 reporting.
  Task        4 on host d021 reporting.
  Task        5 on host d021 reporting.
  Task        6 on host d021 reporting.
  Task        7 on host d021 reporting.
  Task        8 on host d021 reporting.
  Task        9 on host d021 reporting.
  Task       10 on host d021 reporting.
  Task       11 on host d021 reporting.
  Task       12 on host d021 reporting.
  Task       13 on host d021 reporting.
  Task       14 on host d021 reporting.
  Task       15 on host d021 reporting.
  Task       16 on host d021 reporting.
  Task       17 on host d021 reporting.
  Task       18 on host d021 reporting.
  Task       19 on host d021 reporting.
  Task       20 on host d021 reporting.
  Task       21 on host d021 reporting.
  Task       22 on host d021 reporting.
  Task       23 on host d021 reporting.
  Task       24 on host d021 reporting.
  Task       25 on host d021 reporting.
  Task       26 on host d021 reporting.
  Task       27 on host d021 reporting.
  Task       28 on host d021 reporting.
  Task       29 on host d021 reporting.
  Task       30 on host d021 reporting.
  Task       31 on host d021 reporting.
  Task       32 on host d021 reporting.
  Task       33 on host d021 reporting.
  Task       34 on host d021 reporting.
  Task       35 on host d021 reporting.
  Task       36 on host d021 reporting.
  Task       37 on host d021 reporting.
  Task       38 on host d021 reporting.
  Task       39 on host d021 reporting.
  Task       40 on host d021 reporting.
  Task       41 on host d021 reporting.
  Task       42 on host d021 reporting.
  Task       43 on host d021 reporting.
  Task       44 on host d021 reporting.
  Task       45 on host d021 reporting.
  Task       46 on host d021 reporting.
  Task       47 on host d021 reporting.
  Task       48 on host d021 reporting.
  Task       49 on host d021 reporting.
  Task       50 on host d021 reporting.
  Task       51 on host d021 reporting.
  Task       52 on host d021 reporting.
  Task       53 on host d021 reporting.
  Task       54 on host d021 reporting.
  Task       55 on host d021 reporting.

  Performing system and environment tests:
  *** Environment variable OMP_NUM_THREADS is not set
  *** For performance reasons you might want to set it to 1
  | Stacksize not measured: no C compiler
  | Checking for scalapack...
  | Testing pdtran()...
  | All pdtran() tests passed.

  Obtaining array dimensions for all initial allocations:
  
  -----------------------------------------------------------------------
  Parsing control.in (first pass over file, find array dimensions only).
  The contents of control.in will be repeated verbatim below
  unless switched off by setting 'verbatim_writeout .false.' .
  in the first line of control.in .
  -----------------------------------------------------------------------
  
  #===============================================================================
  # FHI-aims file: ./Runs/es/control.in
  # Created using the Atomic Simulation Environment (ASE)
  # Mon Jan 13 16:04:38 2020
  #===============================================================================
  xc                                 pbe
  relativistic                       zora scalar 1e-12
  occupation_type                    gaussian 0.0001
  load_balancing                     .true.
  KS_method                          scalapack_fast
  mixer                              pulay
  n_max_pulay                        5
  charge_mix_param                   0.4
  sc_accuracy_etot                   1e-6
  sc_accuracy_eev                    1e-4
  sc_accuracy_rho                    1e-6
  sc_iter_limit                      100
  prodbas_threshold                  1e-4
  basis_threshold                    1e-5
  override_illconditioning           .true.
  use_logsbt                         .true.
  spin                               none
  charge                             0
  #===============================================================================
  
  ################################################################################
  #
  #  FHI-aims code project
  # Volker Blum, Fritz Haber Institute Berlin, 2009
  #
  #  Suggested "tight" defaults for H atom (to be pasted into control.in file)
  #
  ################################################################################
    species        H
  #     global species definitions
      nucleus             1
      mass                1.00794
  #
      l_hartree           6
  #
      cut_pot             4.0  2.0  1.0
      basis_dep_cutoff    1e-4
  #
      radial_base         24 7.0
      radial_multiplier   2
      angular_grids       specified
        division   0.1930   50
        division   0.3175  110
        division   0.4293  194
        division   0.5066  302
        division   0.5626  434
  #      division   0.5922  590
  #      division   0.6227  974
  #      division   0.6868 1202
  #      outer_grid  770
        outer_grid  434
  ################################################################################
  #
  #  Definition of "minimal" basis
  #
  ################################################################################
  #     valence basis states
      valence      1  s   1.
  #     ion occupancy
      ion_occ      1  s   0.5
  ################################################################################
  #
  #  Suggested additional basis functions. For production calculations,
  #  uncomment them one after another (the most important basis functions are
  #  listed first).
  #
  #  Basis constructed for dimers: 0.5 A, 0.7 A, 1.0 A, 1.5 A, 2.5 A
  #
  ################################################################################
  #  "First tier" - improvements: -1014.90 meV to -62.69 meV
       hydro 2 s 2.1
       hydro 2 p 3.5
  #  "Second tier" - improvements: -12.89 meV to -1.83 meV
       hydro 1 s 0.85
       hydro 2 p 3.7
       hydro 2 s 1.2
       hydro 3 d 7
  #  "Third tier" - improvements: -0.25 meV to -0.12 meV
  #     hydro 4 f 11.2
  #     hydro 3 p 4.8
  #     hydro 4 d 9
  #     hydro 3 s 3.2
  ################################################################################
  #
  # For methods that use the localized form of the "resolution of identity" for
  # the two-electron Coulomb operator (RI_method LVL), particularly Hartree-Fock and
  # hybrid density functional calculations, the highest accuracy can be obtained by
  # uncommenting the line beginning with "for_aux"  below, thus adding an extra g radial
  # function to the construction of the product basis set for the expansion.
  # See Ref. New J. Phys. 17, 093020 (2015) for more information, particularly Figs. 1 and 6.
  #
  ################################################################################
  #
  # for_aux hydro 5 g 6.0
  ################################################################################
  #
  #  FHI-aims code project
  # Volker Blum, Fritz Haber Institute Berlin, 2009
  #
  #  Suggested "tight" defaults for C atom (to be pasted into control.in file)
  #
  ################################################################################
    species        C
  #     global species definitions
      nucleus             6
      mass                12.0107
  #
      l_hartree           6
  #
      cut_pot             4.0  2.0  1.0
      basis_dep_cutoff    1e-4
  #
      radial_base         34 7.0
      radial_multiplier   2
      angular_grids specified
        division   0.2187   50
        division   0.4416  110
        division   0.6335  194
        division   0.7727  302
        division   0.8772  434
  #      division   0.9334  590
  #      division   0.9924  770
  #      division   1.0230  974
  #      division   1.5020 1202
  #     outer_grid  974
        outer_grid  434
  ################################################################################
  #
  #  Definition of "minimal" basis
  #
  ################################################################################
  #     valence basis states
      valence      2  s   2.
      valence      2  p   2.
  #     ion occupancy
      ion_occ      2  s   1.
      ion_occ      2  p   1.
  ################################################################################
  #
  #  Suggested additional basis functions. For production calculations,
  #  uncomment them one after another (the most important basis functions are
  #  listed first).
  #
  #  Constructed for dimers: 1.0 A, 1.25 A, 1.5 A, 2.0 A, 3.0 A
  #
  ################################################################################
  #  "First tier" - improvements: -1214.57 meV to -155.61 meV
       hydro 2 p 1.7
       hydro 3 d 6
       hydro 2 s 4.9
  #  "Second tier" - improvements: -67.75 meV to -5.23 meV
       hydro 4 f 9.8
       hydro 3 p 5.2
       hydro 3 s 4.3
       hydro 5 g 14.4
       hydro 3 d 6.2
  #  "Third tier" - improvements: -2.43 meV to -0.60 meV
  #     hydro 2 p 5.6
  #     hydro 2 s 1.4
  #     hydro 3 d 4.9
  #     hydro 4 f 11.2
  #  "Fourth tier" - improvements: -0.39 meV to -0.18 meV
  #     hydro 2 p 2.1
  #     hydro 5 g 16.4
  #     hydro 4 d 13.2
  #     hydro 3 s 13.6
  #     hydro 4 f 17.6
  #  Further basis functions - improvements: -0.08 meV and below
  #     hydro 3 s 2
  #     hydro 3 p 6
  #     hydro 4 d 20
  ################################################################################
  #
  # For methods that use the localized form of the "resolution of identity" for
  # the two-electron Coulomb operator (RI_method LVL), particularly Hartree-Fock and
  # hybrid density functional calculations, the highest accuracy can be obtained by
  # uncommenting the line beginning with "for_aux"  below, thus adding an extra g radial
  # function to the construction of the product basis set for the expansion.
  # See Ref. New J. Phys. 17, 093020 (2015) for more information, particularly Figs. 1 and 6.
  #
  ################################################################################
  #
  # for_aux hydro 5 g 6.0
  
  -----------------------------------------------------------------------
  Completed first pass over input file control.in .
  -----------------------------------------------------------------------
  
  
  -----------------------------------------------------------------------
  Parsing geometry.in (first pass over file, find array dimensions only).
  The contents of geometry.in will be repeated verbatim below
  unless switched off by setting 'verbatim_writeout .false.' .
  in the first line of geometry.in .
  -----------------------------------------------------------------------
  
  #=======================================================
  # FHI-aims file: geometry.in
  # Created using the Atomic Simulation Environment (ASE)
  # Sun Jun 20 15:47:01 2021
  #=======================================================
  atom 11.1506249999999998 15.1449610000000003 36.6363890000000012 C
  atom 10.7562449999999998 13.7689859999999999 36.7281979999999990 C
  atom 10.5637500000000006 15.9861979999999999 35.6445480000000003 C
  atom 12.1318800000000007 15.6588279999999997 37.5349149999999980 C
  atom 9.7702950000000008 13.2449689999999993 35.8296720000000022 C
  atom 11.3431200000000008 12.9271779999999996 37.7185330000000008 C
  atom 9.5965799999999994 15.4414499999999997 34.7716080000000005 C
  atom 10.9816050000000001 17.3420139999999989 35.5798300000000012 C
  atom 12.7187549999999998 14.8170199999999994 38.5252499999999998 C
  atom 12.5309550000000005 17.0348030000000001 37.4431060000000002 C
  atom 9.3993900000000004 11.8871479999999998 35.9425519999999992 C
  atom 9.2115899999999993 14.1167970000000000 34.8649220000000000 C
  atom 10.9440449999999991 11.5512029999999992 37.8103419999999986 C
  atom 12.3243749999999999 13.4410450000000008 38.6170589999999976 C
  atom 9.1340760000000003 16.0850590000000011 34.0234379999999987 H
  atom 10.5237020000000001 17.9913829999999990 34.8310579999999987 H
  atom 11.9299949999999999 17.8444460000000014 36.4482550000000032 C
  atom 13.7047050000000006 15.3410370000000000 39.4237759999999966 C
  atom 13.5075149999999997 17.5199350000000003 38.3461470000000020 C
  atom 8.6421329999999994 11.4895700000000005 35.2657219999999967 H
  atom 9.9674849999999999 11.0660710000000009 36.9073009999999968 C
  atom 8.4545209999999997 13.7281800000000000 34.1852329999999967 H
  atom 11.5450049999999997 10.7415599999999998 38.8051930000000027 C
  atom 12.9112500000000008 12.5998079999999995 39.6088999999999984 C
  atom 12.2252170000000007 18.8929790000000004 36.3754100000000022 H
  atom 14.2634100000000004 14.4692089999999993 40.3885250000000013 C
  atom 14.0756099999999993 16.6988580000000013 39.3108959999999996 C
  atom 13.8077129999999997 18.5653019999999991 38.2847399999999993 H
  atom 9.6672870000000000 10.0207029999999992 36.9687079999999995 H
  atom 11.2497830000000008 9.6930270000000007 38.8780379999999965 H
  atom 12.4933949999999996 11.2439920000000004 39.6736179999999976 C
  atom 13.8784200000000002 13.1445559999999997 40.4818399999999983 C
  atom 15.0204789999999999 14.8578259999999993 41.0682150000000021 H
  atom 14.8328670000000002 17.0964360000000006 39.9877260000000021 H
  atom 12.9512979999999995 10.5946230000000003 40.4223900000000000 H
  atom 14.3409239999999993 12.5009470000000000 41.2300100000000000 H
  
  -----------------------------------------------------------------------
  Completed first pass over input file geometry.in .
  -----------------------------------------------------------------------
  

  Basic array size parameters:
  | Number of species                 :        2
  | Number of atoms                   :       36
  | Max. basis fn. angular momentum   :        4
  | Max. atomic/ionic basis occupied n:        2
  | Max. number of basis fn. types    :        2
  | Max. radial fns per species/type  :        8
  | Max. logarithmic grid size        :     1277
  | Max. radial integration grid size :       69
  | Max. angular integration grid size:      434
  | Max. angular grid division number :        8
  | Radial grid for Hartree potential :     1277
  | Number of spin channels           :        1

------------------------------------------------------------
          Reading file control.in.
------------------------------------------------------------
  XC: Using PBE gradient-corrected functionals.
  Scalar relativistic treatment of kinetic energy: ZORA.
  Threshold value for ZORA:   0.100000E-11
  Occupation type: Gaussian broadening, width =   0.100000E-03 eV.
  Since 'load_balancing .true.' is present in control.in, automatically turning on 'use_local_index .true.'.
  Using load balancing for integrations.
  Kohn-Sham electronic structure solved by the ELSI library.
  Using pulay charge density mixing.
  Pulay mixing - number of memorized iterations:    5
  Charge density mixing - mixing parameter:     0.4000
  Convergence accuracy of total energy:  0.1000E-05
  Convergence accuracy of sum of eigenvalues:  0.1000E-03
  Convergence accuracy of self-consistent charge density:  0.1000E-05
  Maximum number of s.-c. iterations  :   100
  * Ignoring prodbas_threshold
  Threshold for basis singularities:  0.1000E-04
  override_illconditioning: Explicitly overriding any built-in checks for an ill-conditioned overlap matrix.
  *** WARNING: If you use this flag, you should really know what you are doing.
  *** DO NOT keep this flag set by default in all your control.in files.
  Using 1D integrations for auxiliary 2-center integrals.
  Spin treatment: No spin polarisation.
  Charge =   0.000000E+00: Neutral system requested explicitly.
 
  Reading configuration options for species H                   .
  | Found nuclear charge :   1.0000
  | Found atomic mass :    1.00794000000000      amu
  | Found l_max for Hartree potential  :   6
  | Found cutoff potl. onset [A], width [A], scale factor :    4.00000    2.00000    1.00000
  | Threshold for basis-dependent cutoff potential is   0.100000E-03
  | Found data for basic radial integration grid :    24 points, outermost radius =    7.000 A
  | Found multiplier for basic radial grid :   2
  | Found angular grid specification: user-specified.
  | Specified grid contains     6 separate shells.
  | Check grid settings after all constraints further below.
  | Found free-atom valence shell :  1 s   1.000
  | No ionic wave fns used. Skipping ion_occ.
  | Found hydrogenic basis function :  2 s   2.100
  | Found hydrogenic basis function :  2 p   3.500
  | Found hydrogenic basis function :  1 s   0.850
  | Found hydrogenic basis function :  2 p   3.700
  | Found hydrogenic basis function :  2 s   1.200
  | Found hydrogenic basis function :  3 d   7.000
  Species H                   : Missing cutoff potential type.
  Defaulting to exp(1/x)/(1-x)^2 type cutoff potential.
  Species H : No 'logarithmic' tag. Using default grid for free atom:
  | Default logarithmic grid data [bohr] : 0.1000E-03 0.1000E+03 0.1012E+01
  Species H : On-site basis accuracy parameter (for Gram-Schmidt orthonormalisation) not specified.
  Using default value basis_acc =  0.1000000E-03.
  Species H                   : Using default innermost maximum threshold i_radial=  2 for radial functions.
  Species H                   : Default cutoff onset for free atom density etc. : 0.40000000E+01 AA.
  Species H                   : Basic radial grid will be enhanced according to radial_multiplier =   2, to contain    49 grid points.
 
  Reading configuration options for species C                   .
  | Found nuclear charge :   6.0000
  | Found atomic mass :    12.0107000000000      amu
  | Found l_max for Hartree potential  :   6
  | Found cutoff potl. onset [A], width [A], scale factor :    4.00000    2.00000    1.00000
  | Threshold for basis-dependent cutoff potential is   0.100000E-03
  | Found data for basic radial integration grid :    34 points, outermost radius =    7.000 A
  | Found multiplier for basic radial grid :   2
  | Found angular grid specification: user-specified.
  | Specified grid contains     6 separate shells.
  | Check grid settings after all constraints further below.
  | Found free-atom valence shell :  2 s   2.000
  | Found free-atom valence shell :  2 p   2.000
  | No ionic wave fns used. Skipping ion_occ.
  | No ionic wave fns used. Skipping ion_occ.
  | Found hydrogenic basis function :  2 p   1.700
  | Found hydrogenic basis function :  3 d   6.000
  | Found hydrogenic basis function :  2 s   4.900
  | Found hydrogenic basis function :  4 f   9.800
  | Found hydrogenic basis function :  3 p   5.200
  | Found hydrogenic basis function :  3 s   4.300
  | Found hydrogenic basis function :  5 g  14.400
  | Found hydrogenic basis function :  3 d   6.200
  Species C                   : Missing cutoff potential type.
  Defaulting to exp(1/x)/(1-x)^2 type cutoff potential.
  Species C : No 'logarithmic' tag. Using default grid for free atom:
  | Default logarithmic grid data [bohr] : 0.1000E-03 0.1000E+03 0.1012E+01
  Species C : On-site basis accuracy parameter (for Gram-Schmidt orthonormalisation) not specified.
  Using default value basis_acc =  0.1000000E-03.
  Species C                   : Using default innermost maximum threshold i_radial=  2 for radial functions.
  Species C                   : Default cutoff onset for free atom density etc. : 0.40000000E+01 AA.
  Species C                   : Basic radial grid will be enhanced according to radial_multiplier =   2, to contain    69 grid points.
 
  Finished reading input file 'control.in'. Consistency checks are next.
 
  MPI_IN_PLACE appears to work with this MPI implementation.
  | Keeping use_mpi_in_place .true. (see manual).
  Target number of points in a grid batch is not set. Defaulting to  100
  Method for grid partitioning is not set. Defaulting to parallel hash+maxmin partitioning.
  Batch size limit is not set. Defaulting to    200
  By default, will store active basis functions for each batch.
  If in need of memory, prune_basis_once .false. can be used to disable this option.
  communication_type for Hartree potential was not specified.
  Defaulting to calc_hartree .
  Pulay mixer: Number of initial linear mixing iterations not set.
  Defaulting to    0 iterations.
  Work space size for distributed Hartree potential not set.
  Defaulting to   0.200000E+03 MB.
  Algorithm-dependent basis array size parameters:
  | n_max_pulay                         :        5
  Presetting      1001 iterations before the initial mixing cycle
  is restarted anyway using the sc_init_iter criterion / keyword.
  Presetting a factor      1.000 between actual scf density residual
  and density convergence criterion sc_accuracy_rho below which sc_init_iter
  takes no effect.
  Calculation of forces was not defined in control.in. No forces will be calculated.
  Geometry relaxation not requested: no relaxation will be performed.
  No accuracy limit for integral partition fn. given. Defaulting to  0.1000E-14.
  No threshold value for u(r) in integrations given. Defaulting to  0.1000E-05.
  No accuracy for occupation numbers given. Defaulting to  0.1000E-12.
  No threshold value for occupation numbers given. Defaulting to  0.0000E+00.
  No accuracy for fermi level given. Defaulting to  0.1000E-19.
  Maximum # of iterations to find E_F not set. Defaulting to  200.
  Will not use alltoall communication since running on < 1024 CPUs.
  partition_type (choice of integration weights) for integrals was not specified.
  | Using a version of the partition function of Stratmann and coworkers ('stratmann_sparse').
  | At each grid point, the set of atoms used to build the partition table is smoothly restricted to
  | only those atoms whose free-atom density would be non-zero at that grid point.
  Partitioning for Hartree potential was not defined. Using partition_type for integrals.
  | Adjusted default value of keyword multip_moments_threshold to:       0.10000000E-11
  | This value may affect high angular momentum components of the Hartree potential in periodic systems.
  No q(lm)/r^(l+1) cutoff set for long-range Hartree potential.
  | Using default value of  0.100000E-09 .
  | Verify using the multipole_threshold keyword.
  Defaulting to new monopole extrapolation.
  Density update method: automatic selection selected.
 * Warning: use_local_index and/or load_balancing needs packed_matrix_format = index
 * Changing the default setting to packed_matrix_format = index
------------------------------------------------------------


------------------------------------------------------------
          Reading geometry description geometry.in.
------------------------------------------------------------
  Input structure read successfully.
  The structure contains       36 atoms,  and a total of        156.000 electrons.

  Input geometry:
  | No unit cell requested.
  | Atomic structure:
  |       Atom                x [A]            y [A]            z [A]
  |    1: Species C            11.15062500       15.14496100       36.63638900
  |    2: Species C            10.75624500       13.76898600       36.72819800
  |    3: Species C            10.56375000       15.98619800       35.64454800
  |    4: Species C            12.13188000       15.65882800       37.53491500
  |    5: Species C             9.77029500       13.24496900       35.82967200
  |    6: Species C            11.34312000       12.92717800       37.71853300
  |    7: Species C             9.59658000       15.44145000       34.77160800
  |    8: Species C            10.98160500       17.34201400       35.57983000
  |    9: Species C            12.71875500       14.81702000       38.52525000
  |   10: Species C            12.53095500       17.03480300       37.44310600
  |   11: Species C             9.39939000       11.88714800       35.94255200
  |   12: Species C             9.21159000       14.11679700       34.86492200
  |   13: Species C            10.94404500       11.55120300       37.81034200
  |   14: Species C            12.32437500       13.44104500       38.61705900
  |   15: Species H             9.13407600       16.08505900       34.02343800
  |   16: Species H            10.52370200       17.99138300       34.83105800
  |   17: Species C            11.92999500       17.84444600       36.44825500
  |   18: Species C            13.70470500       15.34103700       39.42377600
  |   19: Species C            13.50751500       17.51993500       38.34614700
  |   20: Species H             8.64213300       11.48957000       35.26572200
  |   21: Species C             9.96748500       11.06607100       36.90730100
  |   22: Species H             8.45452100       13.72818000       34.18523300
  |   23: Species C            11.54500500       10.74156000       38.80519300
  |   24: Species C            12.91125000       12.59980800       39.60890000
  |   25: Species H            12.22521700       18.89297900       36.37541000
  |   26: Species C            14.26341000       14.46920900       40.38852500
  |   27: Species C            14.07561000       16.69885800       39.31089600
  |   28: Species H            13.80771300       18.56530200       38.28474000
  |   29: Species H             9.66728700       10.02070300       36.96870800
  |   30: Species H            11.24978300        9.69302700       38.87803800
  |   31: Species C            12.49339500       11.24399200       39.67361800
  |   32: Species C            13.87842000       13.14455600       40.48184000
  |   33: Species H            15.02047900       14.85782600       41.06821500
  |   34: Species H            14.83286700       17.09643600       39.98772600
  |   35: Species H            12.95129800       10.59462300       40.42239000
  |   36: Species H            14.34092400       12.50094700       41.23001000
  |

  | The smallest distance between any two atoms is         1.08910687 AA.
  |
  | The first atom of this pair is atom number                     12 .
  | The second atom of this pair is atom number                    22 .

  Number of empty states per atom not set in control.in - providing a guess from actual geometry.
  | Total number of empty states used during s.c.f. cycle:       90
  If you use a very high smearing, use empty_states (per atom!) in control.in to increase this value.

  Structure-dependent array size parameters: 
  | Maximum number of distinct radial functions  :       18
  | Maximum number of basis functions            :     1116
  | Number of Kohn-Sham states (occupied + empty):      168
------------------------------------------------------------

------------------------------------------------------------
          Preparing all fixed parts of the calculation.
------------------------------------------------------------
  Determining machine precision:
    2.225073858507201E-308
  Setting up grids for atomic and cluster calculations.

  Creating wave function, potential, and density for free atoms.

  Species: H

  List of occupied orbitals and eigenvalues:
    n    l              occ      energy [Ha]    energy [eV]
    1    0           1.0000        -0.238386        -6.4868


  Species: C

  List of occupied orbitals and eigenvalues:
    n    l              occ      energy [Ha]    energy [eV]
    1    0           2.0000       -10.049212      -273.4530
    2    0           2.0000        -0.504761       -13.7352
    2    1           2.0000        -0.193631        -5.2690

  Creating fixed part of basis set: Ionic, confined, hydrogenic.
 
  H                    hydrogenic:
 
  List of hydrogenic basis orbitals: 
    n    l      effective z      eigenvalue [eV]  inner max. [A]     outer max. [A]     outer radius [A]   
    2    0         2.100000       -14.9965           0.193243           1.317208           5.373006
    2    1         3.500000       -41.6672           0.602369           0.602369           4.056063
    1    0         0.850000        -9.8292           0.624871           0.624871           5.373006
    2    1         3.700000       -46.5653           0.573622           0.573622           3.910002
    2    0         1.200000        -4.5995           0.334980           2.228188           5.505995
    3    2         7.000000       -74.0753           0.680699           0.680699           3.769201
 
 
  C                    hydrogenic:
 
  List of hydrogenic basis orbitals: 
    n    l      effective z      eigenvalue [eV]  inner max. [A]     outer max. [A]     outer radius [A]   
    2    1         1.700000        -9.8152           1.245706           1.245706           5.401630
    3    2         6.000000       -54.4226           0.792453           0.792453           4.178599
    2    0         4.900000       -81.6681           0.082559           0.562749           3.353238
    4    3         9.800000       -81.6681           0.863254           0.863254           4.028125
    3    1         5.200000       -40.8774           0.305389           1.215618           4.898362
    3    0         4.300000       -27.9508           0.091041           1.610311           5.401630
    5    4        14.400000      -112.8510           0.917666           0.917666           3.883070
    3    2         6.200000       -58.1113           0.763917           0.763917           4.077671
 

  Adding cutoff potential to free-atom effective potential.
  Creating atomic-like basis functions for current effective potential.

  Species H                   :

  List of atomic basis orbitals and eigenvalues:
    n    l      energy [Ha]    energy [eV]    outer radius [A]
    1    0        -0.238386        -6.4868       5.373006


  Species C                   :

  List of atomic basis orbitals and eigenvalues:
    n    l      energy [Ha]    energy [eV]    outer radius [A]
    1    0       -10.049212      -273.4530       1.934409
    2    0        -0.504761       -13.7352       5.271162
    2    1        -0.193631        -5.2690       5.401630

  Assembling full basis from fixed parts.
  | Species H :   atomic orbital   1 s accepted.
  | Species H :    hydro orbital   2 s accepted.
  | Species H :    hydro orbital   1 s accepted.
  | Species H :    hydro orbital   2 s accepted.
  | Species H :    hydro orbital   2 p accepted.
  | Species H :    hydro orbital   2 p accepted.
  | Species H :    hydro orbital   3 d accepted.
  | Species C :   atomic orbital   1 s accepted.
  | Species C :    hydro orbital   2 s accepted.
  | Species C :   atomic orbital   2 s accepted.
  | Species C :    hydro orbital   3 s accepted.
  | Species C :    hydro orbital   3 p accepted.
  | Species C :   atomic orbital   2 p accepted.
  | Species C :    hydro orbital   2 p accepted.
  | Species C :    hydro orbital   3 d accepted.
  | Species C :    hydro orbital   3 d accepted.
  | Species C :    hydro orbital   4 f accepted.
  | Species C :    hydro orbital   5 g accepted.
 
  Basis size parameters after reduction:
  | Total number of radial functions:       18
  | Total number of basis functions :     1116
 
  Per-task memory consumption for arrays in subroutine allocate_ext:
  |           4.439656MB.
  Testing on-site integration grid accuracy.
  |  Species  Function  <phi|h_atom|phi> (log., in eV)  <phi|h_atom|phi> (rad., in eV)
           1        1                 -6.4870767962                 -6.4871688290
           1        2                 13.5032046589                 13.5028982997
           1        3                 32.8195184817                 32.8119941656
           1        4                 33.8513856511                 33.7670005767 ***
           1        5                 28.8544614965                 28.8544615203
           1        6                 59.6326952547                 59.6327656460
           1        7                 60.2719308513                 60.2719305949
           2        8               -273.4529726040               -273.4529710464
           2        9                -10.7721037319                -10.7721022101
           2       10                 17.6044132601                 17.6044162063
           2       11                 53.7706460658                 53.7706913770
           2       12                 15.0973290362                 15.0973256030
           2       13                  3.8545134692                  3.8545724687
           2       14                 12.1156992592                 12.1182024431
           2       15                 29.4352039302                 29.4352041816
           2       16                 54.8741144708                 54.8740268729
           2       17                 59.3556032049                 59.3556031382
           2       18                 93.4551837154                 93.4551838009
 * Note: Onsite integrals marked "***" above are less accurate than
 * onsite_accuracy_threshold =    0.03000 eV. Usually, this is harmless.
 * When in doubt, tighten the "radial" and/or "radial_multiplier" flags to check.

  Preparing densities etc. for the partition functions (integrals / Hartree potential).

  Preparations completed.
  max(cpu_time)          :      0.189 s.
  Wall clock time (cpu1) :      0.176 s.
------------------------------------------------------------

------------------------------------------------------------
          Begin self-consistency loop: Initialization.

          Date     :  20210620, Time     :  164034.875
------------------------------------------------------------

  Initializing index lists of integration centers etc. from given atomic structure:
  | Number of centers in hartree potential         :        36
  | Number of centers in hartree multipole         :        36
  | Number of centers in electron density summation:        36
  | Number of centers in basis integrals           :        36
  | Number of centers in integrals                 :        36
  | Number of centers in hamiltonian               :        36
  * Using 56 tasks for Scalapack Eigenvalue solver.
  Detailed listing of tasks and assigned k-points:
  (for non-periodic systems, the "k-point" denotes an internal label only)
   Task     0 k-point     1 on d021
   Task     1 k-point     1 on d021
   Task     2 k-point     1 on d021
   Task     3 k-point     1 on d021
   Task     4 k-point     1 on d021
   Task     5 k-point     1 on d021
   Task     6 k-point     1 on d021
   Task     7 k-point     1 on d021
   Task     8 k-point     1 on d021
   Task     9 k-point     1 on d021
   Task    10 k-point     1 on d021
   Task    11 k-point     1 on d021
   Task    12 k-point     1 on d021
   Task    13 k-point     1 on d021
   Task    14 k-point     1 on d021
   Task    15 k-point     1 on d021
   Task    16 k-point     1 on d021
   Task    17 k-point     1 on d021
   Task    18 k-point     1 on d021
   Task    19 k-point     1 on d021
   Task    20 k-point     1 on d021
   Task    21 k-point     1 on d021
   Task    22 k-point     1 on d021
   Task    23 k-point     1 on d021
   Task    24 k-point     1 on d021
   Task    25 k-point     1 on d021
   Task    26 k-point     1 on d021
   Task    27 k-point     1 on d021
   Task    28 k-point     1 on d021
   Task    29 k-point     1 on d021
   Task    30 k-point     1 on d021
   Task    31 k-point     1 on d021
   Task    32 k-point     1 on d021
   Task    33 k-point     1 on d021
   Task    34 k-point     1 on d021
   Task    35 k-point     1 on d021
   Task    36 k-point     1 on d021
   Task    37 k-point     1 on d021
   Task    38 k-point     1 on d021
   Task    39 k-point     1 on d021
   Task    40 k-point     1 on d021
   Task    41 k-point     1 on d021
   Task    42 k-point     1 on d021
   Task    43 k-point     1 on d021
   Task    44 k-point     1 on d021
   Task    45 k-point     1 on d021
   Task    46 k-point     1 on d021
   Task    47 k-point     1 on d021
   Task    48 k-point     1 on d021
   Task    49 k-point     1 on d021
   Task    50 k-point     1 on d021
   Task    51 k-point     1 on d021
   Task    52 k-point     1 on d021
   Task    53 k-point     1 on d021
   Task    54 k-point     1 on d021
   Task    55 k-point     1 on d021
  Tasks:    56 split into      8 X      7 BLACS grid
  Calculating block size based on n_basis =         1116 max_nprow =            8 max_npcol =            7
  ScaLAPACK block size set to:           16
  Allocating        0.184 MB for ovlp
  Allocating        0.184 MB for ham
  Allocating        0.184 MB for eigenvec
  Required Scalapack workspace - INTEGER:            1 REAL:             1
  Partitioning the integration grid into batches with parallel hashing+maxmin method.
  | Number of batches:     5396
  | Maximal batch size:     200
  | Minimal batch size:      10
  | Average batch size:     112.541
  | Standard deviation of batch sizes:      26.892

  Integration load balanced across     56 MPI tasks.
  Work distribution over tasks is as follows:
  Task      0 has      10937 integration points.
  Task      1 has      10952 integration points.
  Task      2 has      10750 integration points.
  Task      3 has      10906 integration points.
  Task      4 has      10819 integration points.
  Task      5 has      10868 integration points.
  Task      6 has      10764 integration points.
  Task      7 has      10916 integration points.
  Task      8 has      10906 integration points.
  Task      9 has      10774 integration points.
  Task     10 has      10924 integration points.
  Task     11 has      10754 integration points.
  Task     12 has      10830 integration points.
  Task     13 has      10743 integration points.
  Task     14 has      10903 integration points.
  Task     15 has      10945 integration points.
  Task     16 has      10727 integration points.
  Task     17 has      10948 integration points.
  Task     18 has      10787 integration points.
  Task     19 has      10916 integration points.
  Task     20 has      10731 integration points.
  Task     21 has      10867 integration points.
  Task     22 has      10922 integration points.
  Task     23 has      10802 integration points.
  Task     24 has      10931 integration points.
  Task     25 has      10732 integration points.
  Task     26 has      10874 integration points.
  Task     27 has      10708 integration points.
  Task     28 has      10912 integration points.
  Task     29 has      10951 integration points.
  Task     30 has      10723 integration points.
  Task     31 has      10931 integration points.
  Task     32 has      10888 integration points.
  Task     33 has      10862 integration points.
  Task     34 has      10736 integration points.
  Task     35 has      10874 integration points.
  Task     36 has      10888 integration points.
  Task     37 has      10838 integration points.
  Task     38 has      10944 integration points.
  Task     39 has      10776 integration points.
  Task     40 has      10788 integration points.
  Task     41 has      10718 integration points.
  Task     42 has      10936 integration points.
  Task     43 has      10876 integration points.
  Task     44 has      10806 integration points.
  Task     45 has      11067 integration points.
  Task     46 has      10715 integration points.
  Task     47 has      10896 integration points.
  Task     48 has      10783 integration points.
  Task     49 has      10924 integration points.
  Task     50 has      10914 integration points.
  Task     51 has      10666 integration points.
  Task     52 has      10854 integration points.
  Task     53 has      10789 integration points.
  Task     54 has      10846 integration points.
  Task     55 has      10735 integration points.
  Initializing partition tables, free-atom densities, potentials, etc. across the integration grid (initialize_grid_storage).
  | initialize_grid_storage: Actual outermost partition radius vs. multipole_radius_free
  | (-- VB: in principle, multipole_radius_free should be larger, hence this output)
  | Species        1: Confinement radius =              6.000000000000000 AA, multipole_radius_free =              6.071692442739658 AA.
  | Species        1: outer_partition_radius set to              6.071692442739658 AA .
  | Species        2: Confinement radius =              6.000000000000000 AA, multipole_radius_free =              6.029870734432609 AA.
  | Species        2: outer_partition_radius set to              6.029870734432609 AA .
  | The sparse table of interatomic distances needs     15.2680 kbyte instead of    10.3680 kbyte of memory.
  | Using the partition_type stratmann_smoother will reduce your memory usage.
  | Net number of integration points:   607272
  | of which are non-zero points    :   490414
  Renormalizing the initial density to the exact electron count on the 3D integration grid.
  | Initial density: Formal number of electrons (from input files) :     156.0000000000
  | Integrated number of electrons on 3D grid     :     156.0004771604
  | Charge integration error                      :       0.0004771604
  | Normalization factor for density and gradient :       0.9999969413
  Obtaining max. number of non-zero basis functions in each batch (get_n_compute_maxes).
  | Maximal number of non-zero basis functions:      990
  Selecting the method for density update.
  Loop over occupied states selected for charge density update.
  Hamiltonian matrix size:
  | Size of matrix non-packed:                623286
  | Size of matrix packed:          611462
  Allocating        1.500 MB for KS_eigenvector
  use_local_index: Max. local matrix size =       579309
  Task:     0 matrix size:     157051
  Task:     1 matrix size:     167863
  Task:     2 matrix size:     254984
  Task:     3 matrix size:     153107
  Task:     4 matrix size:     234815
  Task:     5 matrix size:     347126
  Task:     6 matrix size:     393041
  Task:     7 matrix size:     282874
  Task:     8 matrix size:     320499
  Task:     9 matrix size:     336352
  Task:    10 matrix size:     425775
  Task:    11 matrix size:     550082
  Task:    12 matrix size:     543158
  Task:    13 matrix size:     566854
  Task:    14 matrix size:     226395
  Task:    15 matrix size:     183847
  Task:    16 matrix size:     201700
  Task:    17 matrix size:     535436
  Task:    18 matrix size:     543928
  Task:    19 matrix size:     453389
  Task:    20 matrix size:     423895
  Task:    21 matrix size:     301933
  Task:    22 matrix size:     199931
  Task:    23 matrix size:     137550
  Task:    24 matrix size:     474260
  Task:    25 matrix size:     297216
  Task:    26 matrix size:     306689
  Task:    27 matrix size:     180856
  Task:    28 matrix size:     274170
  Task:    29 matrix size:     274030
  Task:    30 matrix size:     473296
  Task:    31 matrix size:     141246
  Task:    32 matrix size:     182686
  Task:    33 matrix size:     349365
  Task:    34 matrix size:     209483
  Task:    35 matrix size:     510434
  Task:    36 matrix size:     541318
  Task:    37 matrix size:     527881
  Task:    38 matrix size:     235496
  Task:    39 matrix size:     231400
  Task:    40 matrix size:     305193
  Task:    41 matrix size:     162091
  Task:    42 matrix size:     577314
  Task:    43 matrix size:     579309
  Task:    44 matrix size:     433150
  Task:    45 matrix size:     409486
  Task:    46 matrix size:     405613
  Task:    47 matrix size:     346901
  Task:    48 matrix size:     295816
  Task:    49 matrix size:     392290
  Task:    50 matrix size:     265123
  Task:    51 matrix size:     157006
  Task:    52 matrix size:     282079
  Task:    53 matrix size:     182686
  Task:    54 matrix size:     211501
  Task:    55 matrix size:     158134
  Integrating Hamiltonian matrix: batch-based integration.
  Time summed over all CPUs for integration: real work      102.123 s, elapsed      204.213 s
  Time get_set_sparse_local_matrix_scalapack:     0.011659 s
  Start compute_balanced_batch_distribution
  Done load balancing, time needed:      0.006 s
  Integrating overlap matrix with loadbalancing
  Time summed over all CPUs for integration: real work       27.506 s, elapsed       31.054 s
  Time get_set_full_local_matrix_scalapack:     0.012959 s

  Updating Kohn-Sham eigenvalues and eigenvectors using ELSI and the ELPA eigensolver.
  Overlap matrix is not singular
  | Lowest and highest eigenvalues :  0.11E+02,  0.91E-04
  Finished singularity check of overlap matrix
  | Time :     0.058 s
  Finished Cholesky decomposition
  | Time :     0.013 s
  Finished transformation to standard eigenproblem
  | Time :     0.008 s
  Starting ELPA eigensolver
  Finished solving standard eigenproblem
  | Time :     0.057 s
  Finished back-transformation of eigenvectors
  | Time :     0.003 s

  Obtaining occupation numbers and chemical potential using ELSI.
  | Chemical potential (Fermi level):    -8.32303772 eV
  Writing Kohn-Sham eigenvalues.

  State    Occupation    Eigenvalue [Ha]    Eigenvalue [eV]
      1       2.00000         -10.168734         -276.70534
      2       2.00000         -10.168734         -276.70533
      3       2.00000         -10.168205         -276.69094
      4       2.00000         -10.168205         -276.69094
      5       2.00000         -10.168157         -276.68962
      6       2.00000         -10.168157         -276.68962
      7       2.00000         -10.167695         -276.67705
      8       2.00000         -10.167695         -276.67705
      9       2.00000         -10.167504         -276.67185
     10       2.00000         -10.167504         -276.67185
     11       2.00000         -10.167144         -276.66206
     12       2.00000         -10.167144         -276.66205
     13       2.00000         -10.165601         -276.62009
     14       2.00000         -10.165601         -276.62009
     15       2.00000         -10.165434         -276.61554
     16       2.00000         -10.165434         -276.61554
     17       2.00000         -10.164447         -276.58868
     18       2.00000         -10.164447         -276.58868
     19       2.00000         -10.162472         -276.53493
     20       2.00000         -10.162429         -276.53377
     21       2.00000         -10.162174         -276.52683
     22       2.00000         -10.162111         -276.52512
     23       2.00000         -10.161484         -276.50805
     24       2.00000         -10.161464         -276.50751
     25       2.00000          -1.021055          -27.78433
     26       2.00000          -0.991046          -26.96775
     27       2.00000          -0.989911          -26.93684
     28       2.00000          -0.949425          -25.83518
     29       2.00000          -0.949229          -25.82985
     30       2.00000          -0.930420          -25.31802
     31       2.00000          -0.907743          -24.70096
     32       2.00000          -0.891593          -24.26148
     33       2.00000          -0.870917          -23.69887
     34       2.00000          -0.870067          -23.67573
     35       2.00000          -0.847853          -23.07125
     36       2.00000          -0.846894          -23.04515
     37       2.00000          -0.775439          -21.10077
     38       2.00000          -0.774428          -21.07327
     39       2.00000          -0.770610          -20.96937
     40       2.00000          -0.768961          -20.92449
     41       2.00000          -0.761503          -20.72155
     42       2.00000          -0.704147          -19.16082
     43       2.00000          -0.691089          -18.80550
     44       2.00000          -0.679584          -18.49241
     45       2.00000          -0.677645          -18.43966
     46       2.00000          -0.676785          -18.41627
     47       2.00000          -0.673146          -18.31724
     48       2.00000          -0.623437          -16.96459
     49       2.00000          -0.622350          -16.93500
     50       2.00000          -0.617541          -16.80414
     51       2.00000          -0.616500          -16.77582
     52       2.00000          -0.596558          -16.23318
     53       2.00000          -0.593664          -16.15441
     54       2.00000          -0.570341          -15.51976
     55       2.00000          -0.566257          -15.40863
     56       2.00000          -0.565464          -15.38705
     57       2.00000          -0.565007          -15.37461
     58       2.00000          -0.559505          -15.22490
     59       2.00000          -0.558646          -15.20153
     60       2.00000          -0.542919          -14.77358
     61       2.00000          -0.532340          -14.48572
     62       2.00000          -0.523386          -14.24205
     63       2.00000          -0.514272          -13.99405
     64       2.00000          -0.511034          -13.90593
     65       2.00000          -0.509162          -13.85501
     66       2.00000          -0.508320          -13.83210
     67       2.00000          -0.507524          -13.81042
     68       2.00000          -0.479915          -13.05916
     69       2.00000          -0.476964          -12.97884
     70       2.00000          -0.462535          -12.58621
     71       2.00000          -0.462281          -12.57929
     72       2.00000          -0.447439          -12.17543
     73       2.00000          -0.411383          -11.19429
     74       2.00000          -0.409365          -11.13939
     75       2.00000          -0.392467          -10.67956
     76       2.00000          -0.391479          -10.65268
     77       2.00000          -0.356333           -9.69631
     78       2.00000          -0.355490           -9.67337
     79       0.00000          -0.253514           -6.89847
     80       0.00000          -0.252449           -6.86948
     81       0.00000          -0.215751           -5.87089
     82       0.00000          -0.214138           -5.82699
     83       0.00000          -0.196801           -5.35522
     84       0.00000          -0.191989           -5.22428
     85       0.00000          -0.143696           -3.91016
     86       0.00000          -0.124193           -3.37947
     87       0.00000          -0.123810           -3.36905
     88       0.00000          -0.071171           -1.93665
     89       0.00000          -0.058752           -1.59871
     90       0.00000          -0.058268           -1.58556
     91       0.00000          -0.048430           -1.31785
     92       0.00000          -0.048028           -1.30690
     93       0.00000          -0.045311           -1.23298
     94       0.00000          -0.045076           -1.22659
     95       0.00000          -0.025146           -0.68427
     96       0.00000          -0.019508           -0.53085
     97       0.00000          -0.017912           -0.48740
     98       0.00000          -0.014238           -0.38744
     99       0.00000          -0.014110           -0.38394
    100       0.00000          -0.007399           -0.20134
    101       0.00000          -0.006139           -0.16706
    102       0.00000          -0.004059           -0.11046
    103       0.00000           0.013692            0.37257
    104       0.00000           0.014336            0.39011
    105       0.00000           0.022462            0.61121
    106       0.00000           0.027280            0.74233
    107       0.00000           0.032487            0.88401
    108       0.00000           0.033214            0.90381
    109       0.00000           0.035267            0.95966
    110       0.00000           0.035991            0.97936
    111       0.00000           0.044631            1.21448
    112       0.00000           0.045321            1.23324
    113       0.00000           0.047017            1.27940
    114       0.00000           0.047664            1.29701
    115       0.00000           0.050202            1.36607
    116       0.00000           0.057435            1.56289
    117       0.00000           0.058489            1.59156
    118       0.00000           0.065306            1.77707
    119       0.00000           0.065533            1.78324
    120       0.00000           0.070221            1.91080
    121       0.00000           0.071140            1.93583
    122       0.00000           0.082399            2.24219
    123       0.00000           0.095027            2.58581
    124       0.00000           0.098243            2.67334
    125       0.00000           0.098738            2.68679
    126       0.00000           0.098959            2.69282
    127       0.00000           0.103082            2.80500
    128       0.00000           0.103555            2.81788
    129       0.00000           0.111257            3.02747
    130       0.00000           0.112606            3.06415
    131       0.00000           0.117187            3.18881
    132       0.00000           0.127952            3.48175
    133       0.00000           0.131726            3.58445
    134       0.00000           0.133148            3.62315
    135       0.00000           0.138409            3.76631
    136       0.00000           0.141266            3.84405
    137       0.00000           0.145855            3.96891
    138       0.00000           0.147863            4.02355
    139       0.00000           0.150444            4.09378
    140       0.00000           0.150489            4.09502
    141       0.00000           0.151058            4.11051
    142       0.00000           0.151151            4.11302
    143       0.00000           0.160955            4.37982
    144       0.00000           0.161507            4.39484
    145       0.00000           0.161855            4.40430
    146       0.00000           0.162451            4.42052
    147       0.00000           0.165761            4.51060
    148       0.00000           0.176147            4.79320
    149       0.00000           0.187136            5.09222
    150       0.00000           0.191332            5.20641
    151       0.00000           0.191773            5.21841
    152       0.00000           0.191977            5.22395
    153       0.00000           0.192199            5.23001
    154       0.00000           0.205554            5.59341
    155       0.00000           0.207822            5.65512
    156       0.00000           0.216863            5.90113
    157       0.00000           0.216987            5.90451
    158       0.00000           0.220086            5.98884
    159       0.00000           0.221620            6.03058
    160       0.00000           0.222610            6.05753
    161       0.00000           0.233085            6.34257
    162       0.00000           0.235106            6.39756
    163       0.00000           0.243119            6.61561
    164       0.00000           0.243494            6.62582
    165       0.00000           0.258496            7.03402
    166       0.00000           0.259049            7.04909
    167       0.00000           0.262076            7.13146
    168       0.00000           0.264713            7.20321

  Highest occupied state (VBM) at     -9.67337078 eV
  | Occupation number:      2.00000000

  Lowest unoccupied state (CBM) at    -6.89847102 eV
  | Occupation number:      0.00000000

  Overall HOMO-LUMO gap:      2.77489975 eV.
  Calculating total energy contributions from superposition of free atom densities.

  Total energy components:
  | Sum of eigenvalues            :        -557.69468431 Ha      -15175.64448849 eV
  | XC energy correction          :        -131.56584006 Ha       -3580.08866084 eV
  | XC potential correction       :         168.99136245 Ha        4598.48894090 eV
  | Free-atom electrostatic energy:        -402.27483271 Ha      -10946.45514765 eV
  | Hartree energy correction     :           0.00000000 Ha           0.00000000 eV
  | Entropy correction            :           0.00000000 Ha           0.00000000 eV
  | ---------------------------
  | Total energy                  :        -922.54399463 Ha      -25103.69935609 eV
  | Total energy, T -> 0          :        -922.54399463 Ha      -25103.69935609 eV  <-- do not rely on this value for anything but (periodic) metals
  | Electronic free energy        :        -922.54399463 Ha      -25103.69935609 eV

  Derived energy quantities:
  | Kinetic energy                :         914.51057978 Ha       24885.09901579 eV
  | Electrostatic energy          :       -1705.48873436 Ha      -46408.70971103 eV
  | Energy correction for multipole
  | error in Hartree potential    :           0.00000000 Ha           0.00000000 eV
  | Sum of eigenvalues per atom                           :        -421.54568024 eV
  | Total energy (T->0) per atom                          :        -697.32498211 eV  <-- do not rely on this value for anything but (periodic) metals
  | Electronic free energy per atom                       :        -697.32498211 eV
  Initialize hartree_potential_storage
  Max. number of atoms included in rho_multipole:           36

  End scf initialization - timings             :  max(cpu_time)    wall_clock(cpu1)
  | Time for scf. initialization               :        5.519 s           5.575 s
  | Boundary condition initialization          :        0.000 s           0.003 s
  | Integration                                :        4.246 s           4.250 s
  | Solution of K.-S. eqns.                    :        0.148 s           0.166 s
  | Grid partitioning                          :        0.565 s           0.568 s
  | Preloading free-atom quantities on grid    :        0.014 s           0.016 s
  | Free-atom superposition energy             :        0.045 s           0.045 s
  | Total energy evaluation                    :        0.001 s           0.004 s

  Partial memory accounting:
  | Current value for overall tracked memory usage on task 0  :           2.682 MB
  | Peak value for overall tracked memory usage on task 0     :          26.059 MB after allocating zora_vector2
  | Largest tracked array allocation on task 0 so far         :           7.841 MB  when allocating hamiltonian_shell
  Note:  These values currently only include a subset of arrays which are explicitly tracked.
  The "true" memory usage will be greater.
------------------------------------------------------------

------------------------------------------------------------
          Begin self-consistency iteration #    1

  Date     :  20210620, Time     :  164040.452
------------------------------------------------------------
  Evaluating new KS density.
  Integration grid: deviation in total charge (<rho> - N_e) =   1.705303E-13
  Pulay mixing of updated and previous charge densities.

  Evaluating partitioned Hartree potential by multipole expansion.
  | Analytical far-field extrapolation by fixed multipoles:
  | Hartree multipole sum: apparent total charge =   0.470385E-03
  Summing up the Hartree potential with load balancing.
  Time summed over all CPUs for potential: real work       15.171 s, elapsed       22.867 s
  | RMS charge density error from multipole expansion :   0.116054E-01

  Start compute_balanced_batch_distribution
  Done load balancing, time needed:      0.005 s
  Integrating Hamiltonian matrix: batch-based integration with load balancing
  Time summed over all CPUs for integration: real work      112.175 s, elapsed      126.305 s
  Time get_set_full_local_matrix_scalapack:     0.013011 s
  Start compute_balanced_batch_distribution
  Done load balancing, time needed:      0.005 s

  Updating Kohn-Sham eigenvalues and eigenvectors using ELSI and the ELPA eigensolver.
  Finished transformation to standard eigenproblem
  | Time :     0.011 s
  Starting ELPA eigensolver
  Finished solving standard eigenproblem
  | Time :     0.057 s
  Finished back-transformation of eigenvectors
  | Time :     0.003 s

  Obtaining occupation numbers and chemical potential using ELSI.
  | Chemical potential (Fermi level):    -4.22547055 eV
  Writing Kohn-Sham eigenvalues.

  State    Occupation    Eigenvalue [Ha]    Eigenvalue [eV]
      1       2.00000          -9.979566         -271.55780
      2       2.00000          -9.979544         -271.55722
      3       2.00000          -9.978937         -271.54070
      4       2.00000          -9.978869         -271.53885
      5       2.00000          -9.978625         -271.53219
      6       2.00000          -9.978578         -271.53093
      7       2.00000          -9.973457         -271.39157
      8       2.00000          -9.973457         -271.39157
      9       2.00000          -9.972306         -271.36024
     10       2.00000          -9.972305         -271.36024
     11       2.00000          -9.971989         -271.35161
     12       2.00000          -9.971988         -271.35161
     13       2.00000          -9.955795         -270.91096
     14       2.00000          -9.955795         -270.91096
     15       2.00000          -9.955323         -270.89813
     16       2.00000          -9.955323         -270.89813
     17       2.00000          -9.954931         -270.88747
     18       2.00000          -9.954931         -270.88746
     19       2.00000          -9.954277         -270.86965
     20       2.00000          -9.954276         -270.86964
     21       2.00000          -9.954197         -270.86749
     22       2.00000          -9.954197         -270.86749
     23       2.00000          -9.953825         -270.85736
     24       2.00000          -9.953825         -270.85736
     25       2.00000          -0.880148          -23.95005
     26       2.00000          -0.846894          -23.04516
     27       2.00000          -0.846515          -23.03486
     28       2.00000          -0.804453          -21.89027
     29       2.00000          -0.804252          -21.88482
     30       2.00000          -0.790221          -21.50300
     31       2.00000          -0.760006          -20.68081
     32       2.00000          -0.749670          -20.39957
     33       2.00000          -0.731037          -19.89253
     34       2.00000          -0.730470          -19.87709
     35       2.00000          -0.703095          -19.13220
     36       2.00000          -0.702411          -19.11356
     37       2.00000          -0.634009          -17.25225
     38       2.00000          -0.632826          -17.22007
     39       2.00000          -0.632591          -17.21367
     40       2.00000          -0.631845          -17.19337
     41       2.00000          -0.622907          -16.95015
     42       2.00000          -0.569676          -15.50169
     43       2.00000          -0.557966          -15.18302
     44       2.00000          -0.546519          -14.87154
     45       2.00000          -0.546042          -14.85856
     46       2.00000          -0.543455          -14.78816
     47       2.00000          -0.525608          -14.30252
     48       2.00000          -0.487095          -13.25453
     49       2.00000          -0.486140          -13.22853
     50       2.00000          -0.472431          -12.85549
     51       2.00000          -0.472134          -12.84743
     52       2.00000          -0.469993          -12.78916
     53       2.00000          -0.468304          -12.74321
     54       2.00000          -0.439047          -11.94708
     55       2.00000          -0.436331          -11.87316
     56       2.00000          -0.435832          -11.85960
     57       2.00000          -0.432077          -11.75742
     58       2.00000          -0.426582          -11.60788
     59       2.00000          -0.419230          -11.40784
     60       2.00000          -0.418608          -11.39091
     61       2.00000          -0.396321          -10.78445
     62       2.00000          -0.393416          -10.70540
     63       2.00000          -0.389557          -10.60038
     64       2.00000          -0.389379          -10.59554
     65       2.00000          -0.381693          -10.38640
     66       2.00000          -0.379997          -10.34026
     67       2.00000          -0.378526          -10.30021
     68       2.00000          -0.342574           -9.32192
     69       2.00000          -0.342392           -9.31696
     70       2.00000          -0.341037           -9.28009
     71       2.00000          -0.338054           -9.19891
     72       2.00000          -0.329171           -8.95720
     73       2.00000          -0.290581           -7.90711
     74       2.00000          -0.287799           -7.83142
     75       2.00000          -0.272826           -7.42397
     76       2.00000          -0.271899           -7.39876
     77       2.00000          -0.233875           -6.36407
     78       2.00000          -0.233141           -6.34410
     79       0.00000          -0.131296           -3.57274
     80       0.00000          -0.130340           -3.54674
     81       0.00000          -0.097857           -2.66281
     82       0.00000          -0.096476           -2.62524
     83       0.00000          -0.076299           -2.07621
     84       0.00000          -0.069272           -1.88499
     85       0.00000          -0.027332           -0.74375
     86       0.00000          -0.026806           -0.72943
     87       0.00000          -0.019431           -0.52874
     88       0.00000          -0.019307           -0.52536
     89       0.00000          -0.006203           -0.16880
     90       0.00000          -0.006153           -0.16744
     91       0.00000          -0.004873           -0.13259
     92       0.00000          -0.004521           -0.12302
     93       0.00000           0.010604            0.28854
     94       0.00000           0.011724            0.31902
     95       0.00000           0.030959            0.84245
     96       0.00000           0.031092            0.84605
     97       0.00000           0.056828            1.54638
     98       0.00000           0.060663            1.65071
     99       0.00000           0.061016            1.66032
    100       0.00000           0.067413            1.83441
    101       0.00000           0.067922            1.84826
    102       0.00000           0.074763            2.03441
    103       0.00000           0.075040            2.04195
    104       0.00000           0.083513            2.27250
    105       0.00000           0.091134            2.47988
    106       0.00000           0.093920            2.55571
    107       0.00000           0.103591            2.81885
    108       0.00000           0.103931            2.82810
    109       0.00000           0.110511            3.00716
    110       0.00000           0.110634            3.01050
    111       0.00000           0.115742            3.14949
    112       0.00000           0.116939            3.18208
    113       0.00000           0.117033            3.18464
    114       0.00000           0.136858            3.72410
    115       0.00000           0.140005            3.80973
    116       0.00000           0.144275            3.92593
    117       0.00000           0.146103            3.97566
    118       0.00000           0.148681            4.04581
    119       0.00000           0.148919            4.05230
    120       0.00000           0.149313            4.06300
    121       0.00000           0.149562            4.06980
    122       0.00000           0.149733            4.07444
    123       0.00000           0.152575            4.15179
    124       0.00000           0.167142            4.54815
    125       0.00000           0.168344            4.58088
    126       0.00000           0.170068            4.62780
    127       0.00000           0.171243            4.65976
    128       0.00000           0.179605            4.88729
    129       0.00000           0.180611            4.91468
    130       0.00000           0.182159            4.95679
    131       0.00000           0.182630            4.96962
    132       0.00000           0.182682            4.97104
    133       0.00000           0.204631            5.56828
    134       0.00000           0.205186            5.58339
    135       0.00000           0.205776            5.59946
    136       0.00000           0.205842            5.60125
    137       0.00000           0.206220            5.61152
    138       0.00000           0.212455            5.78120
    139       0.00000           0.216703            5.89678
    140       0.00000           0.217108            5.90780
    141       0.00000           0.219403            5.97026
    142       0.00000           0.228343            6.21352
    143       0.00000           0.230862            6.28208
    144       0.00000           0.234829            6.39001
    145       0.00000           0.236911            6.44667
    146       0.00000           0.237229            6.45534
    147       0.00000           0.237659            6.46704
    148       0.00000           0.243152            6.61650
    149       0.00000           0.244074            6.64159
    150       0.00000           0.248953            6.77436
    151       0.00000           0.257173            6.99804
    152       0.00000           0.257728            7.01314
    153       0.00000           0.259993            7.07476
    154       0.00000           0.282805            7.69551
    155       0.00000           0.283097            7.70345
    156       0.00000           0.291883            7.94253
    157       0.00000           0.292664            7.96379
    158       0.00000           0.293929            7.99822
    159       0.00000           0.312452            8.50226
    160       0.00000           0.313375            8.52736
    161       0.00000           0.313771            8.53815
    162       0.00000           0.314319            8.55306
    163       0.00000           0.318225            8.65936
    164       0.00000           0.319048            8.68173
    165       0.00000           0.319657            8.69830
    166       0.00000           0.324029            8.81728
    167       0.00000           0.326844            8.89387
    168       0.00000           0.327878            8.92202

  Highest occupied state (VBM) at     -6.34409555 eV
  | Occupation number:      2.00000000

  Lowest unoccupied state (CBM) at    -3.57274361 eV
  | Occupation number:      0.00000000

  Overall HOMO-LUMO gap:      2.77135194 eV.

  Total energy components:
  | Sum of eigenvalues            :        -533.62995635 Ha      -14520.80992297 eV
  | XC energy correction          :        -133.11129361 Ha       -3622.14259176 eV
  | XC potential correction       :         170.99859533 Ha        4653.10852657 eV
  | Free-atom electrostatic energy:        -402.27483271 Ha      -10946.45514765 eV
  | Hartree energy correction     :         -23.79225710 Ha        -647.42025602 eV
  | Entropy correction            :           0.00000000 Ha           0.00000000 eV
  | ---------------------------
  | Total energy                  :        -921.80974444 Ha      -25083.71939182 eV
  | Total energy, T -> 0          :        -921.80974444 Ha      -25083.71939182 eV  <-- do not rely on this value for anything but (periodic) metals
  | Electronic free energy        :        -921.80974444 Ha      -25083.71939182 eV

  Derived energy quantities:
  | Kinetic energy                :         921.17037347 Ha       25066.32122245 eV
  | Electrostatic energy          :       -1709.86882430 Ha      -46527.89802251 eV
  | Energy correction for multipole
  | error in Hartree potential    :          -0.05828681 Ha          -1.58606468 eV
  | Sum of eigenvalues per atom                           :        -403.35583119 eV
  | Total energy (T->0) per atom                          :        -696.76998311 eV  <-- do not rely on this value for anything but (periodic) metals
  | Electronic free energy per atom                       :        -696.76998311 eV

  Self-consistency convergence accuracy:
  | Change of charge density      :  0.9341E+00
  | Change of sum of eigenvalues  :  0.6548E+03 eV
  | Change of total energy        :  0.1998E+02 eV

  End self-consistency iteration #     1       :  max(cpu_time)    wall_clock(cpu1)
  | Time for this iteration                    :        3.638 s           3.646 s
  | Charge density update                      :        0.839 s           0.842 s
  | Density mixing                             :        0.002 s           0.004 s
  | Hartree multipole update                   :        0.008 s           0.009 s
  | Hartree multipole summation                :        0.416 s           0.419 s
  | Integration                                :        2.259 s           2.259 s
  | Solution of K.-S. eqns.                    :        0.099 s           0.100 s
  | Total energy evaluation                    :        0.000 s           0.000 s

  Partial memory accounting:
  | Current value for overall tracked memory usage on task 0  :           2.682 MB
  | Peak value for overall tracked memory usage on task 0     :          26.254 MB after allocating zora_vector2
  | Largest tracked array allocation on task 0 so far         :           7.841 MB  when allocating hamiltonian_shell
  Note:  These values currently only include a subset of arrays which are explicitly tracked.
  The "true" memory usage will be greater.
------------------------------------------------------------

------------------------------------------------------------
          Begin self-consistency iteration #    2

  Date     :  20210620, Time     :  164044.100
------------------------------------------------------------
  Evaluating new KS density.
  Integration grid: deviation in total charge (<rho> - N_e) =   1.989520E-13
  Pulay mixing of updated and previous charge densities.

  Evaluating partitioned Hartree potential by multipole expansion.
  | Analytical far-field extrapolation by fixed multipoles:
  | Hartree multipole sum: apparent total charge =   0.469440E-03
  Summing up the Hartree potential with load balancing.
  Time summed over all CPUs for potential: real work       15.296 s, elapsed       17.807 s
  | RMS charge density error from multipole expansion :   0.208964E-01

  Integrating Hamiltonian matrix: batch-based integration with load balancing
  Time summed over all CPUs for integration: real work      113.506 s, elapsed      118.686 s
  Time get_set_full_local_matrix_scalapack:     0.018564 s

  Updating Kohn-Sham eigenvalues and eigenvectors using ELSI and the ELPA eigensolver.
  Finished transformation to standard eigenproblem
  | Time :     0.009 s
  Starting ELPA eigensolver
  Finished solving standard eigenproblem
  | Time :     0.056 s
  Finished back-transformation of eigenvectors
  | Time :     0.002 s

  Obtaining occupation numbers and chemical potential using ELSI.
  | Chemical potential (Fermi level):    -3.01580666 eV
  Highest occupied state (VBM) at     -5.20933050 eV
  | Occupation number:      2.00000000

  Lowest unoccupied state (CBM) at    -2.41305176 eV
  | Occupation number:      0.00000000

  Overall HOMO-LUMO gap:      2.79627874 eV.

  Checking to see if s.c.f. parameters should be adjusted.

  Total energy components:
  | Sum of eigenvalues            :        -524.86289933 Ha      -14282.24616336 eV
  | XC energy correction          :        -133.85138974 Ha       -3642.28163213 eV
  | XC potential correction       :         171.95215508 Ha        4679.05620747 eV
  | Free-atom electrostatic energy:        -402.27483271 Ha      -10946.45514765 eV
  | Hartree energy correction     :         -32.67218568 Ha        -889.05540713 eV
  | Entropy correction            :           0.00000000 Ha           0.00000000 eV
  | ---------------------------
  | Total energy                  :        -921.70915239 Ha      -25080.98214279 eV
  | Total energy, T -> 0          :        -921.70915239 Ha      -25080.98214279 eV  <-- do not rely on this value for anything but (periodic) metals
  | Electronic free energy        :        -921.70915239 Ha      -25080.98214279 eV

  Derived energy quantities:
  | Kinetic energy                :         921.08052850 Ha       25063.87641656 eV
  | Electrostatic energy          :       -1708.93829115 Ha      -46502.57692721 eV
  | Energy correction for multipole
  | error in Hartree potential    :          -0.09809539 Ha          -2.66931143 eV
  | Sum of eigenvalues per atom                           :        -396.72906009 eV
  | Total energy (T->0) per atom                          :        -696.69394841 eV  <-- do not rely on this value for anything but (periodic) metals
  | Electronic free energy per atom                       :        -696.69394841 eV

  Self-consistency convergence accuracy:
  | Change of charge density      :  0.4601E+00
  | Change of sum of eigenvalues  :  0.2386E+03 eV
  | Change of total energy        :  0.2737E+01 eV

  End self-consistency iteration #     2       :  max(cpu_time)    wall_clock(cpu1)
  | Time for this iteration                    :        3.400 s           3.404 s
  | Charge density update                      :        0.837 s           0.837 s
  | Density mixing                             :        0.003 s           0.004 s
  | Hartree multipole update                   :        0.007 s           0.008 s
  | Hartree multipole summation                :        0.320 s           0.320 s
  | Integration                                :        2.123 s           2.123 s
  | Solution of K.-S. eqns.                    :        0.105 s           0.105 s
  | Total energy evaluation                    :        0.001 s           0.002 s

  Partial memory accounting:
  | Current value for overall tracked memory usage on task 0  :           2.682 MB
  | Peak value for overall tracked memory usage on task 0     :          26.259 MB after allocating zora_vector2
  | Largest tracked array allocation on task 0 so far         :           7.841 MB  when allocating hamiltonian_shell
  Note:  These values currently only include a subset of arrays which are explicitly tracked.
  The "true" memory usage will be greater.
------------------------------------------------------------

------------------------------------------------------------
          Begin self-consistency iteration #    3

  Date     :  20210620, Time     :  164047.507
------------------------------------------------------------
  Evaluating new KS density.
  Integration grid: deviation in total charge (<rho> - N_e) =   5.684342E-14
  Pulay mixing of updated and previous charge densities.

  Evaluating partitioned Hartree potential by multipole expansion.
  | Analytical far-field extrapolation by fixed multipoles:
  | Hartree multipole sum: apparent total charge =   0.470008E-03
[...]
  Time get_set_sparse_local_matrix_scalapack:     3.110945 s
  Writing Kohn-Sham eigenvalues.

  State    Occupation    Eigenvalue [Ha]    Eigenvalue [eV]
      1       2.00000          -9.912362         -269.72909
      2       2.00000          -9.912309         -269.72765
      3       2.00000          -9.912022         -269.71985
      4       2.00000          -9.911901         -269.71656
      5       2.00000          -9.911703         -269.71116
      6       2.00000          -9.911636         -269.70932
      7       2.00000          -9.910307         -269.67317
      8       2.00000          -9.910307         -269.67317
      9       2.00000          -9.909708         -269.65687
     10       2.00000          -9.909708         -269.65687
     11       2.00000          -9.909497         -269.65114
     12       2.00000          -9.909497         -269.65114
     13       2.00000          -9.901818         -269.44217
     14       2.00000          -9.901818         -269.44217
     15       2.00000          -9.901388         -269.43047
     16       2.00000          -9.901388         -269.43047
     17       2.00000          -9.901348         -269.42940
     18       2.00000          -9.901348         -269.42940
     19       2.00000          -9.900923         -269.41781
     20       2.00000          -9.900922         -269.41781
     21       2.00000          -9.900856         -269.41599
     22       2.00000          -9.900856         -269.41599
     23       2.00000          -9.900472         -269.40554
     24       2.00000          -9.900472         -269.40554
     25       2.00000          -0.829003          -22.55831
     26       2.00000          -0.795533          -21.64754
     27       2.00000          -0.794906          -21.63048
     28       2.00000          -0.751697          -20.45471
     29       2.00000          -0.751525          -20.45003
     30       2.00000          -0.735710          -20.01970
     31       2.00000          -0.705475          -19.19695
     32       2.00000          -0.695711          -18.93127
     33       2.00000          -0.675494          -18.38113
     34       2.00000          -0.675009          -18.36793
     35       2.00000          -0.647234          -17.61214
     36       2.00000          -0.646625          -17.59557
     37       2.00000          -0.577811          -15.72303
     38       2.00000          -0.576645          -15.69131
     39       2.00000          -0.574952          -15.64524
     40       2.00000          -0.574290          -15.62723
     41       2.00000          -0.565481          -15.38751
     42       2.00000          -0.510165          -13.88229
     43       2.00000          -0.500380          -13.61603
     44       2.00000          -0.487698          -13.27095
     45       2.00000          -0.486966          -13.25103
     46       2.00000          -0.485861          -13.22094
     47       2.00000          -0.467505          -12.72145
     48       2.00000          -0.428393          -11.65715
     49       2.00000          -0.427578          -11.63500
     50       2.00000          -0.412186          -11.21615
     51       2.00000          -0.411789          -11.20534
     52       2.00000          -0.409406          -11.14049
     53       2.00000          -0.407649          -11.09269
     54       2.00000          -0.388815          -10.58019
     55       2.00000          -0.380293          -10.34830
     56       2.00000          -0.376561          -10.24676
     57       2.00000          -0.376143          -10.23538
     58       2.00000          -0.372153          -10.12679
     59       2.00000          -0.357616           -9.73123
     60       2.00000          -0.357096           -9.71707
     61       2.00000          -0.351147           -9.55519
     62       2.00000          -0.350734           -9.54396
     63       2.00000          -0.335200           -9.12125
     64       2.00000          -0.331901           -9.03148
     65       2.00000          -0.320448           -8.71982
     66       2.00000          -0.318957           -8.67927
     67       2.00000          -0.318157           -8.65750
     68       2.00000          -0.303040           -8.24613
     69       2.00000          -0.302842           -8.24075
     70       2.00000          -0.289013           -7.86445
     71       2.00000          -0.279857           -7.61530
     72       2.00000          -0.276964           -7.53658
     73       2.00000          -0.250556           -6.81796
     74       2.00000          -0.246748           -6.71436
     75       2.00000          -0.231854           -6.30906
     76       2.00000          -0.231052           -6.28725
     77       2.00000          -0.192401           -5.23550
     78       2.00000          -0.191705           -5.21657
     79       0.00000          -0.088818           -2.41685
     80       0.00000          -0.087904           -2.39198
     81       0.00000          -0.056971           -1.55025
     82       0.00000          -0.055573           -1.51221
     83       0.00000          -0.035395           -0.96315
     84       0.00000          -0.025324           -0.68911
     85       0.00000          -0.005244           -0.14270
     86       0.00000           0.001720            0.04680
     87       0.00000           0.001891            0.05145
     88       0.00000           0.013604            0.37019
     89       0.00000           0.014903            0.40553
     90       0.00000           0.014951            0.40685
     91       0.00000           0.032092            0.87327
     92       0.00000           0.032591            0.88686
     93       0.00000           0.036721            0.99922
     94       0.00000           0.037038            1.00785
     95       0.00000           0.053532            1.45669
     96       0.00000           0.053611            1.45884
     97       0.00000           0.079767            2.17058
     98       0.00000           0.083964            2.28477
     99       0.00000           0.084285            2.29352
    100       0.00000           0.098178            2.67157
    101       0.00000           0.098328            2.67564
    102       0.00000           0.105503            2.87090
    103       0.00000           0.105903            2.88178
    104       0.00000           0.106292            2.89237
    105       0.00000           0.117684            3.20234
    106       0.00000           0.117784            3.20507
    107       0.00000           0.127506            3.46963
    108       0.00000           0.127717            3.47535
    109       0.00000           0.131179            3.56956
    110       0.00000           0.131409            3.57583
    111       0.00000           0.145737            3.96572
    112       0.00000           0.152115            4.13927
    113       0.00000           0.153018            4.16383
    114       0.00000           0.161558            4.39621
    115       0.00000           0.167774            4.56536
    116       0.00000           0.171564            4.66849
    117       0.00000           0.171878            4.67703
    118       0.00000           0.180655            4.91588
    119       0.00000           0.182212            4.95823
    120       0.00000           0.182246            4.95917
    121       0.00000           0.184941            5.03249
    122       0.00000           0.189987            5.16981
    123       0.00000           0.192234            5.23095
    124       0.00000           0.193396            5.26257
    125       0.00000           0.196014            5.33382
    126       0.00000           0.202346            5.50611
    127       0.00000           0.207202            5.63826
    128       0.00000           0.208153            5.66414
    129       0.00000           0.214426            5.83483
    130       0.00000           0.214893            5.84755
    131       0.00000           0.223634            6.08538
    132       0.00000           0.223744            6.08839
    133       0.00000           0.228940            6.22977
    134       0.00000           0.229835            6.25414
    135       0.00000           0.238260            6.48338
    136       0.00000           0.238921            6.50138
    137       0.00000           0.240746            6.55103
    138       0.00000           0.244778            6.66076
    139       0.00000           0.252153            6.86143
    140       0.00000           0.253243            6.89110
    141       0.00000           0.255809            6.96091
    142       0.00000           0.256371            6.97620
    143       0.00000           0.256724            6.98580
    144       0.00000           0.256857            6.98943
    145       0.00000           0.260000            7.07497
    146       0.00000           0.271570            7.38978
    147       0.00000           0.272838            7.42430
    148       0.00000           0.280669            7.63738
    149       0.00000           0.281470            7.65918
    150       0.00000           0.284594            7.74421
    151       0.00000           0.285823            7.77765
    152       0.00000           0.292606            7.96222
    153       0.00000           0.298625            8.12599
    154       0.00000           0.305930            8.32478
    155       0.00000           0.306251            8.33352
    156       0.00000           0.317456            8.63843
    157       0.00000           0.320242            8.71423
    158       0.00000           0.320863            8.73111
    159       0.00000           0.334749            9.10897
    160       0.00000           0.335142            9.11967
    161       0.00000           0.344101            9.36346
    162       0.00000           0.344528            9.37507
    163       0.00000           0.349717            9.51628
    164       0.00000           0.351519            9.56532
    165       0.00000           0.355093            9.66258
    166       0.00000           0.363628            9.89483
    167       0.00000           0.370240           10.07474
    168       0.00000           0.372389           10.13322

  Highest occupied state (VBM) at     -5.21656703 eV
  | Occupation number:      2.00000000

  Lowest unoccupied state (CBM) at    -2.41684734 eV
  | Occupation number:      0.00000000

  Overall HOMO-LUMO gap:      2.79971969 eV.

  Total energy components:
  | Sum of eigenvalues            :        -524.96898680 Ha      -14285.13295030 eV
  | XC energy correction          :        -133.82068845 Ha       -3641.44620759 eV
  | XC potential correction       :         171.90738013 Ha        4677.83781915 eV
  | Free-atom electrostatic energy:        -402.27483271 Ha      -10946.45514765 eV
  | Hartree energy correction     :         -32.34445656 Ha        -880.13744386 eV
  | Entropy correction            :           0.00000000 Ha           0.00000000 eV
  | ---------------------------
  | Total energy                  :        -921.50158439 Ha      -25075.33393024 eV
  | Total energy, T -> 0          :        -921.50158439 Ha      -25075.33393024 eV  <-- do not rely on this value for anything but (periodic) metals
  | Electronic free energy        :        -921.50158439 Ha      -25075.33393024 eV

  Derived energy quantities:
  | Kinetic energy                :         918.50990867 Ha       24993.92629191 eV
  | Electrostatic energy          :       -1706.19080461 Ha      -46427.81401456 eV
  | Energy correction for multipole
  | error in Hartree potential    :          -0.11211012 Ha          -3.05067155 eV
  | Sum of eigenvalues per atom                           :        -396.80924862 eV
  | Total energy (T->0) per atom                          :        -696.53705362 eV  <-- do not rely on this value for anything but (periodic) metals
  | Electronic free energy per atom                       :        -696.53705362 eV
  End evaluation of scaled ZORA corrections.
  | Time for scaled ZORA corrections           :        4.005 s           4.015 s
------------------------------------------------------------

  Energy and forces in a compact form:
  | Total energy uncorrected      :         -0.250753339302428E+05 eV
  | Total energy corrected        :         -0.250753339302428E+05 eV  <-- do not rely on this value for anything but (periodic) metals
  | Electronic free energy        :         -0.250753339302428E+05 eV

  ------------------------------------ 
  Start decomposition of the XC Energy 
  ------------------------------------ 
  X and C from original XC functional choice 
  Hartree-Fock Energy :          0.000000000 Ha              0.000000000 eV
  X Energy            :       -128.565823048 Ha          -3498.454044523 eV
  C Energy            :         -5.254865406 Ha           -142.992163063 eV
  Total XC Energy     :       -133.820688454 Ha          -3641.446207587 eV
  ------------------------------------ 
  LDA X and C from self-consistent density 
  X Energy LDA        :       -116.454143703 Ha          -3168.878480927 eV
  C Energy LDA        :        -10.110407598 Ha           -275.118188596 eV
  ------------------------------------ 
  End decomposition of the XC Energy 
  ------------------------------------ 

------------------------------------------------------------

------------------------------------------------------------------------------
  Final output of selected total energy values:

  The following output summarizes some interesting total energy values
  at the end of a run (AFTER all relaxation, molecular dynamics, etc.).

  | Total energy of the DFT / Hartree-Fock s.c.f. calculation      :         -25075.333930243 eV
  | Final zero-broadening corrected energy (caution - metals only) :         -25075.333930243 eV
  | For reference only, the value of 1 Hartree used in FHI-aims is :             27.211384500 eV

  Before relying on these values, please be sure to understand exactly which
  total energy value is referred to by a given number. Different objects may
  all carry the same name 'total energy'. Definitions:

  Total energy of the DFT / Hartree-Fock s.c.f. calculation:
  | Note that this energy does not include ANY quantities calculated after the
  | s.c.f. cycle, in particular not ANY RPA, MP2, etc. many-body perturbation terms.
  | Scalar relativistic effects have been included in the 'scaled ZORA' approximation.

  Final zero-broadening corrected energy:
  | For metallic systems only, a broadening of the occupation numbers at the Fermi
  | level can be extrapolated back to zero broadening by an electron-gas inspired
  | formula. For all systems that are not real metals, this value can be
  | meaningless and should be avoided.

------------------------------------------------------------------------------
  Methods described in the following list of references were used in this FHI-aims run.
  If you publish the results, please make sure to cite these reference if they apply.
  FHI-aims is an academic code, and for our developers (often, Ph.D. students
  and postdocs), scientific credit in the community is essential.
  Thank you for helping us!

  For any use of FHI-aims, please cite:

    Volker Blum, Ralf Gehrke, Felix Hanke, Paula Havu, Ville Havu,
    Xinguo Ren, Karsten Reuter, and Matthias Scheffler
    'Ab initio molecular simulations with numeric atom-centered orbitals'
    Computer Physics Communications 180, 2175-2196 (2009)
    http://dx.doi.org/10.1016/j.cpc.2009.06.022


  The scalable eigensolver library ELPA was used in your run.
  ELPA is essential especially for large systems on hundreds or thousands of CPUs.
  For ELPA, please cite:

    Andreas Marek, Volker Blum, Rainer Johanni, Ville Havu, Bruno Lang,
    Thomas Auckenthaler, Alexander Heinecke, Hans-Joachim Bungartz, and Hermann Lederer,
    'The ELPA Library - Scalable Parallel Eigenvalue Solutions
    for Electronic Structure Theory and Computational Science'
    The Journal of Physics: Condensed Matter 26, 213201 (2014).
    http://dx.doi.org/10.1088/0953-8984/26/21/213201


  The ELSI infrastructure was used in your run to solve the Kohn-Sham electronic structure.
  Please check out http://elsi-interchange.org to learn more.
  If scalability is important for your project, please acknowledge ELSI by citing:

    V. W-z. Yu, F. Corsetti, A. Garcia, W. P. Huhn, M. Jacquelin, W. Jia,
    B. Lange, L. Lin, J. Lu, W. Mi, A. Seifitokaldani, A. Vazquez-Mayagoitia,
    C. Yang, H. Yang, and V. Blum
    'ELSI: A unified software interface for Kohn-Sham electronic structure solvers'
    Computer Physics Communications 222, 267-285 (2018).
    http://dx.doi.org/10.1016/j.cpc.2017.09.007


  For the real-space grid partitioning and parallelization used in this calculation, please cite:

    Ville Havu, Volker Blum, Paula Havu, and Matthias Scheffler,
    'Efficient O(N) integration for all-electron electronic structure calculation'
    'using numerically tabulated basis functions'
    Journal of Computational Physics 228, 8367-8379 (2009).
    http://dx.doi.org/10.1016/j.jcp.2009.08.008

  Of course, there are many other important community references, e.g., those cited in the
  above references. Our list is limited to references that describe implementations in the
  FHI-aims code. The reason is purely practical (length of this list) - please credit others as well.

------------------------------------------------------------
          Leaving FHI-aims.
          Date     :  20210620, Time     :  164135.818

          Computational steps:
          | Number of self-consistency cycles          :           15
          | Number of SCF (re)initializations          :            1

          Detailed time accounting                     :  max(cpu_time)    wall_clock(cpu1)
          | Total time                                 :       61.144 s          61.312 s
          | Preparation time                           :        0.189 s           0.176 s
          | Boundary condition initalization           :        0.000 s           0.003 s
          | Grid partitioning                          :        0.565 s           0.568 s
          | Preloading free-atom quantities on grid    :        0.014 s           0.016 s
          | Free-atom superposition energy             :        0.045 s           0.045 s
          | Total time for integrations                :       36.163 s          36.167 s
          | Total time for solution of K.-S. equations :        1.651 s           1.678 s
          | Total time for density update              :       12.674 s          12.645 s
          | Total time for mixing                      :        0.084 s           0.087 s
          | Total time for Hartree multipole update    :        0.110 s           0.113 s
          | Total time for Hartree multipole sum       :        4.895 s           4.899 s
          | Total time for total energy evaluation     :        0.006 s           0.024 s
          | Total time for scaled ZORA corrections     :        4.005 s           4.015 s

          Partial memory accounting:
          | Residual value for overall tracked memory usage across tasks :     0.000000 MB (should be 0.000000 MB)
          | Peak values for overall tracked memory usage (after allocating zora_vector2):
          |   Minimum:       26.244 MB (on task  4)
          |   Maximum:       31.127 MB (on task 43)
          |   Average:       28.466 MB
          | Largest tracked array allocation (hamiltonian_shell):
          |   Minimum:        7.841 MB (on task  1)
          |   Maximum:        7.841 MB (on task  1)
          |   Average:        7.841 MB
          Note:  These values currently only include a subset of arrays which are explicitly tracked.
          The "true" memory usage will be greater.

          Have a nice day.
------------------------------------------------------------
