  MPI-parallelism will be employed.
------------------------------------------------------------
          Invoking FHI-aims ...
          Version 180607
          Git rev. (modified): 6724847 Fix JSON memory corruption in scf_solver
          Compiled on 2018/06/27 at 16:00:31 on host coe.psc.edu.

          When using FHI-aims, please cite the following reference:

          Volker Blum, Ralf Gehrke, Felix Hanke, Paula Havu,
          Ville Havu, Xinguo Ren, Karsten Reuter, and Matthias Scheffler,
          'Ab Initio Molecular Simulations with Numeric Atom-Centered Orbitals',
          Computer Physics Communications 180, 2175-2196 (2009)

          For any questions about FHI-aims, please visit the aimsclub website
          with its forums and wiki. Contributions to both the forums and the
          wiki are warmly encouraged - they are for you, and everyone is welcome there.

------------------------------------------------------------



  Date     :  20210620, Time     :  174639.872
  Time zero on CPU 1             :   0.208796000000000E+00  s.
  Internal wall clock time zero  :           393443199.872  s.

  FHI-aims created a unique identifier for this run for later identification
  aims_uuid : B6049A6B-F69B-43D1-A6F2-86D875E4E352

  Using       56 parallel tasks.
  Task        0 on host d001 reporting.
  Task        1 on host d001 reporting.
  Task        2 on host d001 reporting.
  Task        3 on host d001 reporting.
  Task        4 on host d001 reporting.
  Task        5 on host d001 reporting.
  Task        6 on host d001 reporting.
  Task        7 on host d001 reporting.
  Task        8 on host d001 reporting.
  Task        9 on host d001 reporting.
  Task       10 on host d001 reporting.
  Task       11 on host d001 reporting.
  Task       12 on host d001 reporting.
  Task       13 on host d001 reporting.
  Task       14 on host d001 reporting.
  Task       15 on host d001 reporting.
  Task       16 on host d001 reporting.
  Task       17 on host d001 reporting.
  Task       18 on host d001 reporting.
  Task       19 on host d001 reporting.
  Task       20 on host d001 reporting.
  Task       21 on host d001 reporting.
  Task       22 on host d001 reporting.
  Task       23 on host d001 reporting.
  Task       24 on host d001 reporting.
  Task       25 on host d001 reporting.
  Task       26 on host d001 reporting.
  Task       27 on host d001 reporting.
  Task       28 on host d001 reporting.
  Task       29 on host d001 reporting.
  Task       30 on host d001 reporting.
  Task       31 on host d001 reporting.
  Task       32 on host d001 reporting.
  Task       33 on host d001 reporting.
  Task       34 on host d001 reporting.
  Task       35 on host d001 reporting.
  Task       36 on host d001 reporting.
  Task       37 on host d001 reporting.
  Task       38 on host d001 reporting.
  Task       39 on host d001 reporting.
  Task       40 on host d001 reporting.
  Task       41 on host d001 reporting.
  Task       42 on host d001 reporting.
  Task       43 on host d001 reporting.
  Task       44 on host d001 reporting.
  Task       45 on host d001 reporting.
  Task       46 on host d001 reporting.
  Task       47 on host d001 reporting.
  Task       48 on host d001 reporting.
  Task       49 on host d001 reporting.
  Task       50 on host d001 reporting.
  Task       51 on host d001 reporting.
  Task       52 on host d001 reporting.
  Task       53 on host d001 reporting.
  Task       54 on host d001 reporting.
  Task       55 on host d001 reporting.

  Performing system and environment tests:
  *** Environment variable OMP_NUM_THREADS is not set
  *** For performance reasons you might want to set it to 1
  | Stacksize not measured: no C compiler
  | Checking for scalapack...
  | Testing pdtran()...
  | All pdtran() tests passed.

  Obtaining array dimensions for all initial allocations:
  
  -----------------------------------------------------------------------
  Parsing control.in (first pass over file, find array dimensions only).
  The contents of control.in will be repeated verbatim below
  unless switched off by setting 'verbatim_writeout .false.' .
  in the first line of control.in .
  -----------------------------------------------------------------------
  
  #===============================================================================
  # FHI-aims file: ./Runs/es/control.in
  # Created using the Atomic Simulation Environment (ASE)
  # Mon Jan 13 16:04:38 2020
  #===============================================================================
  xc                                 pbe
  relativistic                       zora scalar 1e-12
  occupation_type                    gaussian 0.0001
  load_balancing                     .true.
  KS_method                          scalapack_fast
  mixer                              pulay
  n_max_pulay                        5
  charge_mix_param                   0.4
  sc_accuracy_etot                   1e-6
  sc_accuracy_eev                    1e-4
  sc_accuracy_rho                    1e-6
  sc_iter_limit                      100
  prodbas_threshold                  1e-4
  basis_threshold                    1e-5
  override_illconditioning           .true.
  use_logsbt                         .true.
  spin                               none
  charge                             0
  #===============================================================================
  
  ################################################################################
  #
  #  FHI-aims code project
  # Volker Blum, Fritz Haber Institute Berlin, 2009
  #
  #  Suggested "tight" defaults for H atom (to be pasted into control.in file)
  #
  ################################################################################
    species        H
  #     global species definitions
      nucleus             1
      mass                1.00794
  #
      l_hartree           6
  #
      cut_pot             4.0  2.0  1.0
      basis_dep_cutoff    1e-4
  #
      radial_base         24 7.0
      radial_multiplier   2
      angular_grids       specified
        division   0.1930   50
        division   0.3175  110
        division   0.4293  194
        division   0.5066  302
        division   0.5626  434
  #      division   0.5922  590
  #      division   0.6227  974
  #      division   0.6868 1202
  #      outer_grid  770
        outer_grid  434
  ################################################################################
  #
  #  Definition of "minimal" basis
  #
  ################################################################################
  #     valence basis states
      valence      1  s   1.
  #     ion occupancy
      ion_occ      1  s   0.5
  ################################################################################
  #
  #  Suggested additional basis functions. For production calculations,
  #  uncomment them one after another (the most important basis functions are
  #  listed first).
  #
  #  Basis constructed for dimers: 0.5 A, 0.7 A, 1.0 A, 1.5 A, 2.5 A
  #
  ################################################################################
  #  "First tier" - improvements: -1014.90 meV to -62.69 meV
       hydro 2 s 2.1
       hydro 2 p 3.5
  #  "Second tier" - improvements: -12.89 meV to -1.83 meV
       hydro 1 s 0.85
       hydro 2 p 3.7
       hydro 2 s 1.2
       hydro 3 d 7
  #  "Third tier" - improvements: -0.25 meV to -0.12 meV
  #     hydro 4 f 11.2
  #     hydro 3 p 4.8
  #     hydro 4 d 9
  #     hydro 3 s 3.2
  ################################################################################
  #
  # For methods that use the localized form of the "resolution of identity" for
  # the two-electron Coulomb operator (RI_method LVL), particularly Hartree-Fock and
  # hybrid density functional calculations, the highest accuracy can be obtained by
  # uncommenting the line beginning with "for_aux"  below, thus adding an extra g radial
  # function to the construction of the product basis set for the expansion.
  # See Ref. New J. Phys. 17, 093020 (2015) for more information, particularly Figs. 1 and 6.
  #
  ################################################################################
  #
  # for_aux hydro 5 g 6.0
  ################################################################################
  #
  #  FHI-aims code project
  # Volker Blum, Fritz Haber Institute Berlin, 2009
  #
  #  Suggested "tight" defaults for C atom (to be pasted into control.in file)
  #
  ################################################################################
    species        C
  #     global species definitions
      nucleus             6
      mass                12.0107
  #
      l_hartree           6
  #
      cut_pot             4.0  2.0  1.0
      basis_dep_cutoff    1e-4
  #
      radial_base         34 7.0
      radial_multiplier   2
      angular_grids specified
        division   0.2187   50
        division   0.4416  110
        division   0.6335  194
        division   0.7727  302
        division   0.8772  434
  #      division   0.9334  590
  #      division   0.9924  770
  #      division   1.0230  974
  #      division   1.5020 1202
  #     outer_grid  974
        outer_grid  434
  ################################################################################
  #
  #  Definition of "minimal" basis
  #
  ################################################################################
  #     valence basis states
      valence      2  s   2.
      valence      2  p   2.
  #     ion occupancy
      ion_occ      2  s   1.
      ion_occ      2  p   1.
  ################################################################################
  #
  #  Suggested additional basis functions. For production calculations,
  #  uncomment them one after another (the most important basis functions are
  #  listed first).
  #
  #  Constructed for dimers: 1.0 A, 1.25 A, 1.5 A, 2.0 A, 3.0 A
  #
  ################################################################################
  #  "First tier" - improvements: -1214.57 meV to -155.61 meV
       hydro 2 p 1.7
       hydro 3 d 6
       hydro 2 s 4.9
  #  "Second tier" - improvements: -67.75 meV to -5.23 meV
       hydro 4 f 9.8
       hydro 3 p 5.2
       hydro 3 s 4.3
       hydro 5 g 14.4
       hydro 3 d 6.2
  #  "Third tier" - improvements: -2.43 meV to -0.60 meV
  #     hydro 2 p 5.6
  #     hydro 2 s 1.4
  #     hydro 3 d 4.9
  #     hydro 4 f 11.2
  #  "Fourth tier" - improvements: -0.39 meV to -0.18 meV
  #     hydro 2 p 2.1
  #     hydro 5 g 16.4
  #     hydro 4 d 13.2
  #     hydro 3 s 13.6
  #     hydro 4 f 17.6
  #  Further basis functions - improvements: -0.08 meV and below
  #     hydro 3 s 2
  #     hydro 3 p 6
  #     hydro 4 d 20
  ################################################################################
  #
  # For methods that use the localized form of the "resolution of identity" for
  # the two-electron Coulomb operator (RI_method LVL), particularly Hartree-Fock and
  # hybrid density functional calculations, the highest accuracy can be obtained by
  # uncommenting the line beginning with "for_aux"  below, thus adding an extra g radial
  # function to the construction of the product basis set for the expansion.
  # See Ref. New J. Phys. 17, 093020 (2015) for more information, particularly Figs. 1 and 6.
  #
  ################################################################################
  #
  # for_aux hydro 5 g 6.0
  
  -----------------------------------------------------------------------
  Completed first pass over input file control.in .
  -----------------------------------------------------------------------
  
  
  -----------------------------------------------------------------------
  Parsing geometry.in (first pass over file, find array dimensions only).
  The contents of geometry.in will be repeated verbatim below
  unless switched off by setting 'verbatim_writeout .false.' .
  in the first line of geometry.in .
  -----------------------------------------------------------------------
  
  #=======================================================
  # FHI-aims file: geometry.in
  # Created using the Atomic Simulation Environment (ASE)
  # Sun Jun 20 15:47:02 2021
  #=======================================================
  atom 10.5513619999999992 32.8863660000000024 53.7468980000000016 H
  atom 11.0477329999999991 33.6295220000000015 53.1223290000000006 C
  atom 10.6886869999999998 33.6714929999999981 51.7605580000000032 C
  atom 11.9843130000000002 34.4513389999999973 53.7146529999999984 C
  atom 9.9266679999999994 32.9856070000000017 51.3904110000000003 H
  atom 11.3183410000000002 34.5786060000000006 50.9586460000000017 C
  atom 12.1931729999999998 34.3485780000000034 54.7798209999999983 H
  atom 12.6545000000000005 35.4139619999999979 52.9248880000000028 C
  atom 11.3175889999999999 34.9847759999999965 49.5085339999999974 C
  atom 12.2745149999999992 35.4112549999999970 51.5966859999999983 C
  atom 13.6745529999999995 36.3820010000000025 53.2696370000000030 C
  atom 10.7113569999999996 34.6544239999999988 48.3309530000000009 C
  atom 12.2938700000000001 36.0475870000000000 49.4182050000000004 C
  atom 12.8488650000000000 36.2831660000000014 50.6733049999999992 C
  atom 14.2225619999999999 37.2200649999999982 52.3433849999999978 C
  atom 14.0319269999999996 36.4258669999999967 54.2990270000000024 H
  atom 9.7160250000000001 33.6931549999999973 47.8715809999999991 C
  atom 11.1182149999999993 35.3950079999999971 47.1535930000000008 C
  atom 12.7110610000000008 36.7692160000000001 48.3135049999999993 C
  atom 13.8265209999999996 37.2078800000000030 50.9617369999999994 C
  atom 15.0035369999999997 37.9171880000000030 52.6554489999999973 H
  atom 9.1893320000000003 32.9911579999999987 48.5118300000000033 H
  atom 9.5410850000000007 33.8339610000000022 46.5422749999999965 C
  atom 10.4106620000000003 34.9021880000000024 46.0391750000000002 C
  atom 12.0687390000000008 36.4104329999999976 47.0767359999999968 C
  atom 13.7345100000000002 37.7521479999999983 48.5732270000000028 C
  atom 14.2631840000000008 37.9606479999999991 49.8245720000000034 C
  atom 8.8574389999999994 33.2538150000000030 45.9272029999999987 H
  atom 10.6530900000000006 35.4586410000000001 44.8088109999999986 C
  atom 12.2943590000000000 36.9533470000000008 45.7838709999999978 C
  atom 14.1235839999999993 38.3438019999999966 47.7454749999999990 H
  atom 15.0464240000000000 38.7069180000000017 49.9462619999999973 H
  atom 10.1328949999999995 35.1128550000000033 43.9154660000000021 H
  atom 11.6032729999999997 36.4862510000000029 44.7050100000000015 C
  atom 13.0433360000000000 37.7356300000000005 45.6520220000000023 H
  atom 11.8080909999999992 36.9102930000000029 43.7217789999999979 H
  
  -----------------------------------------------------------------------
  Completed first pass over input file geometry.in .
  -----------------------------------------------------------------------
  

  Basic array size parameters:
  | Number of species                 :        2
  | Number of atoms                   :       36
  | Max. basis fn. angular momentum   :        4
  | Max. atomic/ionic basis occupied n:        2
  | Max. number of basis fn. types    :        2
  | Max. radial fns per species/type  :        8
  | Max. logarithmic grid size        :     1277
  | Max. radial integration grid size :       69
  | Max. angular integration grid size:      434
  | Max. angular grid division number :        8
  | Radial grid for Hartree potential :     1277
  | Number of spin channels           :        1

------------------------------------------------------------
          Reading file control.in.
------------------------------------------------------------
  XC: Using PBE gradient-corrected functionals.
  Scalar relativistic treatment of kinetic energy: ZORA.
  Threshold value for ZORA:   0.100000E-11
  Occupation type: Gaussian broadening, width =   0.100000E-03 eV.
  Since 'load_balancing .true.' is present in control.in, automatically turning on 'use_local_index .true.'.
  Using load balancing for integrations.
  Kohn-Sham electronic structure solved by the ELSI library.
  Using pulay charge density mixing.
  Pulay mixing - number of memorized iterations:    5
  Charge density mixing - mixing parameter:     0.4000
  Convergence accuracy of total energy:  0.1000E-05
  Convergence accuracy of sum of eigenvalues:  0.1000E-03
  Convergence accuracy of self-consistent charge density:  0.1000E-05
  Maximum number of s.-c. iterations  :   100
  * Ignoring prodbas_threshold
  Threshold for basis singularities:  0.1000E-04
  override_illconditioning: Explicitly overriding any built-in checks for an ill-conditioned overlap matrix.
  *** WARNING: If you use this flag, you should really know what you are doing.
  *** DO NOT keep this flag set by default in all your control.in files.
  Using 1D integrations for auxiliary 2-center integrals.
  Spin treatment: No spin polarisation.
  Charge =   0.000000E+00: Neutral system requested explicitly.
 
  Reading configuration options for species H                   .
  | Found nuclear charge :   1.0000
  | Found atomic mass :    1.00794000000000      amu
  | Found l_max for Hartree potential  :   6
  | Found cutoff potl. onset [A], width [A], scale factor :    4.00000    2.00000    1.00000
  | Threshold for basis-dependent cutoff potential is   0.100000E-03
  | Found data for basic radial integration grid :    24 points, outermost radius =    7.000 A
  | Found multiplier for basic radial grid :   2
  | Found angular grid specification: user-specified.
  | Specified grid contains     6 separate shells.
  | Check grid settings after all constraints further below.
  | Found free-atom valence shell :  1 s   1.000
  | No ionic wave fns used. Skipping ion_occ.
  | Found hydrogenic basis function :  2 s   2.100
  | Found hydrogenic basis function :  2 p   3.500
  | Found hydrogenic basis function :  1 s   0.850
  | Found hydrogenic basis function :  2 p   3.700
  | Found hydrogenic basis function :  2 s   1.200
  | Found hydrogenic basis function :  3 d   7.000
  Species H                   : Missing cutoff potential type.
  Defaulting to exp(1/x)/(1-x)^2 type cutoff potential.
  Species H : No 'logarithmic' tag. Using default grid for free atom:
  | Default logarithmic grid data [bohr] : 0.1000E-03 0.1000E+03 0.1012E+01
  Species H : On-site basis accuracy parameter (for Gram-Schmidt orthonormalisation) not specified.
  Using default value basis_acc =  0.1000000E-03.
  Species H                   : Using default innermost maximum threshold i_radial=  2 for radial functions.
  Species H                   : Default cutoff onset for free atom density etc. : 0.40000000E+01 AA.
  Species H                   : Basic radial grid will be enhanced according to radial_multiplier =   2, to contain    49 grid points.
 
  Reading configuration options for species C                   .
  | Found nuclear charge :   6.0000
  | Found atomic mass :    12.0107000000000      amu
  | Found l_max for Hartree potential  :   6
  | Found cutoff potl. onset [A], width [A], scale factor :    4.00000    2.00000    1.00000
  | Threshold for basis-dependent cutoff potential is   0.100000E-03
  | Found data for basic radial integration grid :    34 points, outermost radius =    7.000 A
  | Found multiplier for basic radial grid :   2
  | Found angular grid specification: user-specified.
  | Specified grid contains     6 separate shells.
  | Check grid settings after all constraints further below.
  | Found free-atom valence shell :  2 s   2.000
  | Found free-atom valence shell :  2 p   2.000
  | No ionic wave fns used. Skipping ion_occ.
  | No ionic wave fns used. Skipping ion_occ.
  | Found hydrogenic basis function :  2 p   1.700
  | Found hydrogenic basis function :  3 d   6.000
  | Found hydrogenic basis function :  2 s   4.900
  | Found hydrogenic basis function :  4 f   9.800
  | Found hydrogenic basis function :  3 p   5.200
  | Found hydrogenic basis function :  3 s   4.300
  | Found hydrogenic basis function :  5 g  14.400
  | Found hydrogenic basis function :  3 d   6.200
  Species C                   : Missing cutoff potential type.
  Defaulting to exp(1/x)/(1-x)^2 type cutoff potential.
  Species C : No 'logarithmic' tag. Using default grid for free atom:
  | Default logarithmic grid data [bohr] : 0.1000E-03 0.1000E+03 0.1012E+01
  Species C : On-site basis accuracy parameter (for Gram-Schmidt orthonormalisation) not specified.
  Using default value basis_acc =  0.1000000E-03.
  Species C                   : Using default innermost maximum threshold i_radial=  2 for radial functions.
  Species C                   : Default cutoff onset for free atom density etc. : 0.40000000E+01 AA.
  Species C                   : Basic radial grid will be enhanced according to radial_multiplier =   2, to contain    69 grid points.
 
  Finished reading input file 'control.in'. Consistency checks are next.
 
  MPI_IN_PLACE appears to work with this MPI implementation.
  | Keeping use_mpi_in_place .true. (see manual).
  Target number of points in a grid batch is not set. Defaulting to  100
  Method for grid partitioning is not set. Defaulting to parallel hash+maxmin partitioning.
  Batch size limit is not set. Defaulting to    200
  By default, will store active basis functions for each batch.
  If in need of memory, prune_basis_once .false. can be used to disable this option.
  communication_type for Hartree potential was not specified.
  Defaulting to calc_hartree .
  Pulay mixer: Number of initial linear mixing iterations not set.
  Defaulting to    0 iterations.
  Work space size for distributed Hartree potential not set.
  Defaulting to   0.200000E+03 MB.
  Algorithm-dependent basis array size parameters:
  | n_max_pulay                         :        5
  Presetting      1001 iterations before the initial mixing cycle
  is restarted anyway using the sc_init_iter criterion / keyword.
  Presetting a factor      1.000 between actual scf density residual
  and density convergence criterion sc_accuracy_rho below which sc_init_iter
  takes no effect.
  Calculation of forces was not defined in control.in. No forces will be calculated.
  Geometry relaxation not requested: no relaxation will be performed.
  No accuracy limit for integral partition fn. given. Defaulting to  0.1000E-14.
  No threshold value for u(r) in integrations given. Defaulting to  0.1000E-05.
  No accuracy for occupation numbers given. Defaulting to  0.1000E-12.
  No threshold value for occupation numbers given. Defaulting to  0.0000E+00.
  No accuracy for fermi level given. Defaulting to  0.1000E-19.
  Maximum # of iterations to find E_F not set. Defaulting to  200.
  Will not use alltoall communication since running on < 1024 CPUs.
  partition_type (choice of integration weights) for integrals was not specified.
  | Using a version of the partition function of Stratmann and coworkers ('stratmann_sparse').
  | At each grid point, the set of atoms used to build the partition table is smoothly restricted to
  | only those atoms whose free-atom density would be non-zero at that grid point.
  Partitioning for Hartree potential was not defined. Using partition_type for integrals.
  | Adjusted default value of keyword multip_moments_threshold to:       0.10000000E-11
  | This value may affect high angular momentum components of the Hartree potential in periodic systems.
  No q(lm)/r^(l+1) cutoff set for long-range Hartree potential.
  | Using default value of  0.100000E-09 .
  | Verify using the multipole_threshold keyword.
  Defaulting to new monopole extrapolation.
  Density update method: automatic selection selected.
 * Warning: use_local_index and/or load_balancing needs packed_matrix_format = index
 * Changing the default setting to packed_matrix_format = index
------------------------------------------------------------


------------------------------------------------------------
          Reading geometry description geometry.in.
------------------------------------------------------------
  Input structure read successfully.
  The structure contains       36 atoms,  and a total of        156.000 electrons.

  Input geometry:
  | No unit cell requested.
  | Atomic structure:
  |       Atom                x [A]            y [A]            z [A]
  |    1: Species H            10.55136200       32.88636600       53.74689800
  |    2: Species C            11.04773300       33.62952200       53.12232900
  |    3: Species C            10.68868700       33.67149300       51.76055800
  |    4: Species C            11.98431300       34.45133900       53.71465300
  |    5: Species H             9.92666800       32.98560700       51.39041100
  |    6: Species C            11.31834100       34.57860600       50.95864600
  |    7: Species H            12.19317300       34.34857800       54.77982100
  |    8: Species C            12.65450000       35.41396200       52.92488800
  |    9: Species C            11.31758900       34.98477600       49.50853400
  |   10: Species C            12.27451500       35.41125500       51.59668600
  |   11: Species C            13.67455300       36.38200100       53.26963700
  |   12: Species C            10.71135700       34.65442400       48.33095300
  |   13: Species C            12.29387000       36.04758700       49.41820500
  |   14: Species C            12.84886500       36.28316600       50.67330500
  |   15: Species C            14.22256200       37.22006500       52.34338500
  |   16: Species H            14.03192700       36.42586700       54.29902700
  |   17: Species C             9.71602500       33.69315500       47.87158100
  |   18: Species C            11.11821500       35.39500800       47.15359300
  |   19: Species C            12.71106100       36.76921600       48.31350500
  |   20: Species C            13.82652100       37.20788000       50.96173700
  |   21: Species H            15.00353700       37.91718800       52.65544900
  |   22: Species H             9.18933200       32.99115800       48.51183000
  |   23: Species C             9.54108500       33.83396100       46.54227500
  |   24: Species C            10.41066200       34.90218800       46.03917500
  |   25: Species C            12.06873900       36.41043300       47.07673600
  |   26: Species C            13.73451000       37.75214800       48.57322700
  |   27: Species C            14.26318400       37.96064800       49.82457200
  |   28: Species H             8.85743900       33.25381500       45.92720300
  |   29: Species C            10.65309000       35.45864100       44.80881100
  |   30: Species C            12.29435900       36.95334700       45.78387100
  |   31: Species H            14.12358400       38.34380200       47.74547500
  |   32: Species H            15.04642400       38.70691800       49.94626200
  |   33: Species H            10.13289500       35.11285500       43.91546600
  |   34: Species C            11.60327300       36.48625100       44.70501000
  |   35: Species H            13.04333600       37.73563000       45.65202200
  |   36: Species H            11.80809100       36.91029300       43.72177900
  |

  | The smallest distance between any two atoms is         1.08633516 AA.
  |
  | The first atom of this pair is atom number                     17 .
  | The second atom of this pair is atom number                    22 .

  Number of empty states per atom not set in control.in - providing a guess from actual geometry.
  | Total number of empty states used during s.c.f. cycle:       90
  If you use a very high smearing, use empty_states (per atom!) in control.in to increase this value.

  Structure-dependent array size parameters: 
  | Maximum number of distinct radial functions  :       18
  | Maximum number of basis functions            :     1116
  | Number of Kohn-Sham states (occupied + empty):      168
------------------------------------------------------------

------------------------------------------------------------
          Preparing all fixed parts of the calculation.
------------------------------------------------------------
  Determining machine precision:
    2.225073858507201E-308
  Setting up grids for atomic and cluster calculations.

  Creating wave function, potential, and density for free atoms.

  Species: H

  List of occupied orbitals and eigenvalues:
    n    l              occ      energy [Ha]    energy [eV]
    1    0           1.0000        -0.238386        -6.4868


  Species: C

  List of occupied orbitals and eigenvalues:
    n    l              occ      energy [Ha]    energy [eV]
    1    0           2.0000       -10.049212      -273.4530
    2    0           2.0000        -0.504761       -13.7352
    2    1           2.0000        -0.193631        -5.2690

  Creating fixed part of basis set: Ionic, confined, hydrogenic.
 
  H                    hydrogenic:
 
  List of hydrogenic basis orbitals: 
    n    l      effective z      eigenvalue [eV]  inner max. [A]     outer max. [A]     outer radius [A]   
    2    0         2.100000       -14.9965           0.193243           1.317208           5.373006
    2    1         3.500000       -41.6672           0.602369           0.602369           4.056063
    1    0         0.850000        -9.8292           0.624871           0.624871           5.373006
    2    1         3.700000       -46.5653           0.573622           0.573622           3.910002
    2    0         1.200000        -4.5995           0.334980           2.228188           5.505995
    3    2         7.000000       -74.0753           0.680699           0.680699           3.769201
 
 
  C                    hydrogenic:
 
  List of hydrogenic basis orbitals: 
    n    l      effective z      eigenvalue [eV]  inner max. [A]     outer max. [A]     outer radius [A]   
    2    1         1.700000        -9.8152           1.245706           1.245706           5.401630
    3    2         6.000000       -54.4226           0.792453           0.792453           4.178599
    2    0         4.900000       -81.6681           0.082559           0.562749           3.353238
    4    3         9.800000       -81.6681           0.863254           0.863254           4.028125
    3    1         5.200000       -40.8774           0.305389           1.215618           4.898362
    3    0         4.300000       -27.9508           0.091041           1.610311           5.401630
    5    4        14.400000      -112.8510           0.917666           0.917666           3.883070
    3    2         6.200000       -58.1113           0.763917           0.763917           4.077671
 

  Adding cutoff potential to free-atom effective potential.
  Creating atomic-like basis functions for current effective potential.

  Species H                   :

  List of atomic basis orbitals and eigenvalues:
    n    l      energy [Ha]    energy [eV]    outer radius [A]
    1    0        -0.238386        -6.4868       5.373006


  Species C                   :

  List of atomic basis orbitals and eigenvalues:
    n    l      energy [Ha]    energy [eV]    outer radius [A]
    1    0       -10.049212      -273.4530       1.934409
    2    0        -0.504761       -13.7352       5.271162
    2    1        -0.193631        -5.2690       5.401630

  Assembling full basis from fixed parts.
  | Species H :   atomic orbital   1 s accepted.
  | Species H :    hydro orbital   2 s accepted.
  | Species H :    hydro orbital   1 s accepted.
  | Species H :    hydro orbital   2 s accepted.
  | Species H :    hydro orbital   2 p accepted.
  | Species H :    hydro orbital   2 p accepted.
  | Species H :    hydro orbital   3 d accepted.
  | Species C :   atomic orbital   1 s accepted.
  | Species C :    hydro orbital   2 s accepted.
  | Species C :   atomic orbital   2 s accepted.
  | Species C :    hydro orbital   3 s accepted.
  | Species C :    hydro orbital   3 p accepted.
  | Species C :   atomic orbital   2 p accepted.
  | Species C :    hydro orbital   2 p accepted.
  | Species C :    hydro orbital   3 d accepted.
  | Species C :    hydro orbital   3 d accepted.
  | Species C :    hydro orbital   4 f accepted.
  | Species C :    hydro orbital   5 g accepted.
 
  Basis size parameters after reduction:
  | Total number of radial functions:       18
  | Total number of basis functions :     1116
 
  Per-task memory consumption for arrays in subroutine allocate_ext:
  |           4.439656MB.
  Testing on-site integration grid accuracy.
  |  Species  Function  <phi|h_atom|phi> (log., in eV)  <phi|h_atom|phi> (rad., in eV)
           1        1                 -6.4870767962                 -6.4871688290
           1        2                 13.5032046589                 13.5028982997
           1        3                 32.8195184817                 32.8119941656
           1        4                 33.8513856511                 33.7670005767 ***
           1        5                 28.8544614965                 28.8544615203
           1        6                 59.6326952547                 59.6327656460
           1        7                 60.2719308513                 60.2719305949
           2        8               -273.4529726040               -273.4529710464
           2        9                -10.7721037319                -10.7721022101
           2       10                 17.6044132601                 17.6044162063
           2       11                 53.7706460658                 53.7706913770
           2       12                 15.0973290362                 15.0973256030
           2       13                  3.8545134692                  3.8545724687
           2       14                 12.1156992592                 12.1182024431
           2       15                 29.4352039302                 29.4352041816
           2       16                 54.8741144708                 54.8740268729
           2       17                 59.3556032049                 59.3556031382
           2       18                 93.4551837154                 93.4551838009
 * Note: Onsite integrals marked "***" above are less accurate than
 * onsite_accuracy_threshold =    0.03000 eV. Usually, this is harmless.
 * When in doubt, tighten the "radial" and/or "radial_multiplier" flags to check.

  Preparing densities etc. for the partition functions (integrals / Hartree potential).

  Preparations completed.
  max(cpu_time)          :      0.203 s.
  Wall clock time (cpu1) :      0.208 s.
------------------------------------------------------------

------------------------------------------------------------
          Begin self-consistency loop: Initialization.

          Date     :  20210620, Time     :  174640.262
------------------------------------------------------------

  Initializing index lists of integration centers etc. from given atomic structure:
  | Number of centers in hartree potential         :        36
  | Number of centers in hartree multipole         :        36
  | Number of centers in electron density summation:        36
  | Number of centers in basis integrals           :        36
  | Number of centers in integrals                 :        36
  | Number of centers in hamiltonian               :        36
  * Using 56 tasks for Scalapack Eigenvalue solver.
  Detailed listing of tasks and assigned k-points:
  (for non-periodic systems, the "k-point" denotes an internal label only)
   Task     0 k-point     1 on d001
   Task     1 k-point     1 on d001
   Task     2 k-point     1 on d001
   Task     3 k-point     1 on d001
   Task     4 k-point     1 on d001
   Task     5 k-point     1 on d001
   Task     6 k-point     1 on d001
   Task     7 k-point     1 on d001
   Task     8 k-point     1 on d001
   Task     9 k-point     1 on d001
   Task    10 k-point     1 on d001
   Task    11 k-point     1 on d001
   Task    12 k-point     1 on d001
   Task    13 k-point     1 on d001
   Task    14 k-point     1 on d001
   Task    15 k-point     1 on d001
   Task    16 k-point     1 on d001
   Task    17 k-point     1 on d001
   Task    18 k-point     1 on d001
   Task    19 k-point     1 on d001
   Task    20 k-point     1 on d001
   Task    21 k-point     1 on d001
   Task    22 k-point     1 on d001
   Task    23 k-point     1 on d001
   Task    24 k-point     1 on d001
   Task    25 k-point     1 on d001
   Task    26 k-point     1 on d001
   Task    27 k-point     1 on d001
   Task    28 k-point     1 on d001
   Task    29 k-point     1 on d001
   Task    30 k-point     1 on d001
   Task    31 k-point     1 on d001
   Task    32 k-point     1 on d001
   Task    33 k-point     1 on d001
   Task    34 k-point     1 on d001
   Task    35 k-point     1 on d001
   Task    36 k-point     1 on d001
   Task    37 k-point     1 on d001
   Task    38 k-point     1 on d001
   Task    39 k-point     1 on d001
   Task    40 k-point     1 on d001
   Task    41 k-point     1 on d001
   Task    42 k-point     1 on d001
   Task    43 k-point     1 on d001
   Task    44 k-point     1 on d001
   Task    45 k-point     1 on d001
   Task    46 k-point     1 on d001
   Task    47 k-point     1 on d001
   Task    48 k-point     1 on d001
   Task    49 k-point     1 on d001
   Task    50 k-point     1 on d001
   Task    51 k-point     1 on d001
   Task    52 k-point     1 on d001
   Task    53 k-point     1 on d001
   Task    54 k-point     1 on d001
   Task    55 k-point     1 on d001
  Tasks:    56 split into      8 X      7 BLACS grid
  Calculating block size based on n_basis =         1116 max_nprow =            8 max_npcol =            7
  ScaLAPACK block size set to:           16
  Allocating        0.184 MB for ovlp
  Allocating        0.184 MB for ham
  Allocating        0.184 MB for eigenvec
  Required Scalapack workspace - INTEGER:            1 REAL:             1
  Partitioning the integration grid into batches with parallel hashing+maxmin method.
  | Number of batches:     5390
  | Maximal batch size:     198
  | Minimal batch size:       1
  | Average batch size:     112.666
  | Standard deviation of batch sizes:      31.860

  Integration load balanced across     56 MPI tasks.
  Work distribution over tasks is as follows:
  Task      0 has      10983 integration points.
  Task      1 has      10890 integration points.
  Task      2 has      10746 integration points.
  Task      3 has      11010 integration points.
  Task      4 has      10833 integration points.
  Task      5 has      10799 integration points.
  Task      6 has      10792 integration points.
  Task      7 has      10907 integration points.
  Task      8 has      10988 integration points.
  Task      9 has      10717 integration points.
  Task     10 has      10885 integration points.
  Task     11 has      10809 integration points.
  Task     12 has      10822 integration points.
  Task     13 has      10750 integration points.
  Task     14 has      10970 integration points.
  Task     15 has      10861 integration points.
  Task     16 has      10784 integration points.
  Task     17 has      10921 integration points.
  Task     18 has      10843 integration points.
  Task     19 has      10879 integration points.
  Task     20 has      10785 integration points.
  Task     21 has      10914 integration points.
  Task     22 has      10877 integration points.
  Task     23 has      10713 integration points.
  Task     24 has      10861 integration points.
  Task     25 has      10804 integration points.
  Task     26 has      10864 integration points.
  Task     27 has      10751 integration points.
  Task     28 has      10904 integration points.
  Task     29 has      10924 integration points.
  Task     30 has      10835 integration points.
  Task     31 has      10893 integration points.
  Task     32 has      10768 integration points.
  Task     33 has      10940 integration points.
  Task     34 has      10715 integration points.
  Task     35 has      10872 integration points.
  Task     36 has      10871 integration points.
  Task     37 has      10844 integration points.
  Task     38 has      10984 integration points.
  Task     39 has      10769 integration points.
  Task     40 has      10845 integration points.
  Task     41 has      10750 integration points.
  Task     42 has      10932 integration points.
  Task     43 has      10813 integration points.
  Task     44 has      10812 integration points.
  Task     45 has      10906 integration points.
  Task     46 has      10832 integration points.
  Task     47 has      10801 integration points.
  Task     48 has      10729 integration points.
  Task     49 has      10865 integration points.
  Task     50 has      10894 integration points.
  Task     51 has      10728 integration points.
  Task     52 has      10995 integration points.
  Task     53 has      10766 integration points.
  Task     54 has      10787 integration points.
  Task     55 has      10740 integration points.
  Initializing partition tables, free-atom densities, potentials, etc. across the integration grid (initialize_grid_storage).
  | initialize_grid_storage: Actual outermost partition radius vs. multipole_radius_free
  | (-- VB: in principle, multipole_radius_free should be larger, hence this output)
  | Species        1: Confinement radius =              6.000000000000000 AA, multipole_radius_free =              6.071692442739658 AA.
  | Species        1: outer_partition_radius set to              6.071692442739658 AA .
  | Species        2: Confinement radius =              6.000000000000000 AA, multipole_radius_free =              6.029870734432609 AA.
  | Species        2: outer_partition_radius set to              6.029870734432609 AA .
  | The sparse table of interatomic distances needs     15.2680 kbyte instead of    10.3680 kbyte of memory.
  | Using the partition_type stratmann_smoother will reduce your memory usage.
  | Net number of integration points:   607272
  | of which are non-zero points    :   491292
  Renormalizing the initial density to the exact electron count on the 3D integration grid.
  | Initial density: Formal number of electrons (from input files) :     156.0000000000
  | Integrated number of electrons on 3D grid     :     155.9999821389
  | Charge integration error                      :      -0.0000178611
  | Normalization factor for density and gradient :       1.0000001145
  Obtaining max. number of non-zero basis functions in each batch (get_n_compute_maxes).
  | Maximal number of non-zero basis functions:      930
  Selecting the method for density update.
  Loop over occupied states selected for charge density update.
  Hamiltonian matrix size:
  | Size of matrix non-packed:                623286
  | Size of matrix packed:          596771
  Allocating        1.500 MB for KS_eigenvector
  use_local_index: Max. local matrix size =       551557
  Task:     0 matrix size:     122760
  Task:     1 matrix size:     106491
  Task:     2 matrix size:     176714
  Task:     3 matrix size:     229133
  Task:     4 matrix size:     290493
  Task:     5 matrix size:     325598
  Task:     6 matrix size:     389134
  Task:     7 matrix size:     196876
  Task:     8 matrix size:     161584
  Task:     9 matrix size:     257979
  Task:    10 matrix size:     443211
  Task:    11 matrix size:     474134
  Task:    12 matrix size:     505429
  Task:    13 matrix size:     551557
  Task:    14 matrix size:     183921
  Task:    15 matrix size:     150426
  Task:    16 matrix size:     177310
  Task:    17 matrix size:     505515
  Task:    18 matrix size:     426055
  Task:    19 matrix size:     511001
  Task:    20 matrix size:     465448
  Task:    21 matrix size:     157611
  Task:    22 matrix size:     293151
  Task:    23 matrix size:     221081
  Task:    24 matrix size:     472840
  Task:    25 matrix size:     437981
  Task:    26 matrix size:     360651
  Task:    27 matrix size:     231806
  Task:    28 matrix size:     286496
  Task:    29 matrix size:     401373
  Task:    30 matrix size:     476196
  Task:    31 matrix size:     177210
  Task:    32 matrix size:      88410
  Task:    33 matrix size:     270940
  Task:    34 matrix size:     170236
  Task:    35 matrix size:     491843
  Task:    36 matrix size:     494388
  Task:    37 matrix size:     466136
  Task:    38 matrix size:     185745
  Task:    39 matrix size:     216153
  Task:    40 matrix size:     188805
  Task:    41 matrix size:     230816
  Task:    42 matrix size:     510826
  Task:    43 matrix size:     501039
  Task:    44 matrix size:     412893
  Task:    45 matrix size:     388167
  Task:    46 matrix size:     339415
  Task:    47 matrix size:     214735
  Task:    48 matrix size:     207618
  Task:    49 matrix size:     385057
  Task:    50 matrix size:     271581
  Task:    51 matrix size:     187332
  Task:    52 matrix size:     252892
  Task:    53 matrix size:     168999
  Task:    54 matrix size:     194928
  Task:    55 matrix size:     132355
  Integrating Hamiltonian matrix: batch-based integration.
  Time summed over all CPUs for integration: real work       97.140 s, elapsed      183.017 s
  Time get_set_sparse_local_matrix_scalapack:     0.011740 s
  Start compute_balanced_batch_distribution
  Done load balancing, time needed:      0.006 s
  Integrating overlap matrix with loadbalancing
  Time summed over all CPUs for integration: real work       26.764 s, elapsed       31.854 s
  Time get_set_full_local_matrix_scalapack:     0.012457 s

  Updating Kohn-Sham eigenvalues and eigenvectors using ELSI and the ELPA eigensolver.
  Overlap matrix is not singular
  | Lowest and highest eigenvalues :  0.11E+02,  0.84E-04
  Finished singularity check of overlap matrix
  | Time :     0.057 s
  Finished Cholesky decomposition
  | Time :     0.013 s
  Finished transformation to standard eigenproblem
  | Time :     0.008 s
  Starting ELPA eigensolver
  Finished solving standard eigenproblem
  | Time :     0.056 s
  Finished back-transformation of eigenvectors
  | Time :     0.003 s

  Obtaining occupation numbers and chemical potential using ELSI.
  | Chemical potential (Fermi level):    -8.49924948 eV
  Writing Kohn-Sham eigenvalues.

  State    Occupation    Eigenvalue [Ha]    Eigenvalue [eV]
      1       2.00000         -10.182614         -277.08302
      2       2.00000         -10.178137         -276.96120
      3       2.00000         -10.174286         -276.85640
      4       2.00000         -10.173188         -276.82654
      5       2.00000         -10.171625         -276.78401
      6       2.00000         -10.171341         -276.77628
      7       2.00000         -10.170554         -276.75484
      8       2.00000         -10.170208         -276.74543
      9       2.00000         -10.169964         -276.73880
     10       2.00000         -10.169451         -276.72484
     11       2.00000         -10.169385         -276.72304
     12       2.00000         -10.168787         -276.70677
     13       2.00000         -10.168356         -276.69504
     14       2.00000         -10.168201         -276.69083
     15       2.00000         -10.168126         -276.68879
     16       2.00000         -10.167854         -276.68137
     17       2.00000         -10.167421         -276.66959
     18       2.00000         -10.166803         -276.65278
     19       2.00000         -10.166685         -276.64958
     20       2.00000         -10.166036         -276.63192
     21       2.00000         -10.165743         -276.62394
     22       2.00000         -10.165069         -276.60559
     23       2.00000         -10.164658         -276.59441
     24       2.00000         -10.160646         -276.48523
     25       2.00000          -1.046986          -28.48995
     26       2.00000          -1.025220          -27.89766
     27       2.00000          -0.987555          -26.87274
     28       2.00000          -0.968091          -26.34310
     29       2.00000          -0.963701          -26.22363
     30       2.00000          -0.936649          -25.48750
     31       2.00000          -0.921349          -25.07118
     32       2.00000          -0.887963          -24.16269
     33       2.00000          -0.870539          -23.68856
     34       2.00000          -0.865690          -23.55663
     35       2.00000          -0.860049          -23.40312
     36       2.00000          -0.854335          -23.24764
     37       2.00000          -0.799524          -21.75615
     38       2.00000          -0.783208          -21.31218
     39       2.00000          -0.767930          -20.89643
     40       2.00000          -0.751010          -20.43601
     41       2.00000          -0.744474          -20.25818
     42       2.00000          -0.734461          -19.98569
     43       2.00000          -0.703459          -19.14208
     44       2.00000          -0.687184          -18.69924
     45       2.00000          -0.676580          -18.41067
     46       2.00000          -0.670582          -18.24745
     47       2.00000          -0.653259          -17.77607
     48       2.00000          -0.637132          -17.33726
     49       2.00000          -0.627688          -17.08026
     50       2.00000          -0.616675          -16.78059
     51       2.00000          -0.610200          -16.60440
     52       2.00000          -0.603846          -16.43150
     53       2.00000          -0.599266          -16.30685
     54       2.00000          -0.585002          -15.91871
     55       2.00000          -0.569468          -15.49601
     56       2.00000          -0.568537          -15.47068
     57       2.00000          -0.562974          -15.31930
     58       2.00000          -0.557278          -15.16430
     59       2.00000          -0.556134          -15.13318
     60       2.00000          -0.554067          -15.07694
     61       2.00000          -0.531066          -14.45104
     62       2.00000          -0.528791          -14.38913
     63       2.00000          -0.523860          -14.25496
     64       2.00000          -0.516526          -14.05540
     65       2.00000          -0.504239          -13.72104
     66       2.00000          -0.497313          -13.53259
     67       2.00000          -0.497155          -13.52828
     68       2.00000          -0.495904          -13.49424
     69       2.00000          -0.481380          -13.09901
     70       2.00000          -0.476947          -12.97839
     71       2.00000          -0.467235          -12.71412
     72       2.00000          -0.438996          -11.94569
     73       2.00000          -0.429364          -11.68360
     74       2.00000          -0.404591          -11.00948
     75       2.00000          -0.381877          -10.39140
     76       2.00000          -0.378845          -10.30890
     77       2.00000          -0.374979          -10.20369
     78       2.00000          -0.365824           -9.95459
     79       0.00000          -0.277345           -7.54694
     80       0.00000          -0.251462           -6.84264
     81       0.00000          -0.228439           -6.21614
     82       0.00000          -0.198070           -5.38976
     83       0.00000          -0.186707           -5.08055
     84       0.00000          -0.176695           -4.80812
     85       0.00000          -0.158576           -4.31508
     86       0.00000          -0.130248           -3.54422
     87       0.00000          -0.106431           -2.89614
     88       0.00000          -0.073496           -1.99993
     89       0.00000          -0.066949           -1.82178
     90       0.00000          -0.065214           -1.77457
     91       0.00000          -0.057937           -1.57655
     92       0.00000          -0.049279           -1.34096
     93       0.00000          -0.042694           -1.16175
     94       0.00000          -0.038575           -1.04968
     95       0.00000          -0.035775           -0.97350
     96       0.00000          -0.026842           -0.73041
     97       0.00000          -0.023588           -0.64186
     98       0.00000          -0.015466           -0.42086
     99       0.00000          -0.015167           -0.41271
    100       0.00000          -0.012403           -0.33750
    101       0.00000          -0.007293           -0.19847
    102       0.00000          -0.000381           -0.01037
    103       0.00000           0.002584            0.07031
    104       0.00000           0.004658            0.12675
    105       0.00000           0.009073            0.24689
    106       0.00000           0.015563            0.42348
    107       0.00000           0.024843            0.67601
    108       0.00000           0.031558            0.85873
    109       0.00000           0.031927            0.86879
    110       0.00000           0.040196            1.09378
    111       0.00000           0.043030            1.17091
    112       0.00000           0.046535            1.26628
    113       0.00000           0.048443            1.31819
    114       0.00000           0.049823            1.35574
    115       0.00000           0.055393            1.50732
    116       0.00000           0.061195            1.66521
    117       0.00000           0.061398            1.67072
    118       0.00000           0.062606            1.70360
    119       0.00000           0.068581            1.86619
    120       0.00000           0.069787            1.89900
    121       0.00000           0.076815            2.09026
    122       0.00000           0.082288            2.23916
    123       0.00000           0.086107            2.34310
    124       0.00000           0.088191            2.39980
    125       0.00000           0.090852            2.47220
    126       0.00000           0.093454            2.54301
    127       0.00000           0.100130            2.72466
    128       0.00000           0.105815            2.87938
    129       0.00000           0.110169            2.99786
    130       0.00000           0.112298            3.05577
    131       0.00000           0.113385            3.08535
    132       0.00000           0.120399            3.27623
    133       0.00000           0.124751            3.39465
    134       0.00000           0.127111            3.45887
    135       0.00000           0.129334            3.51936
    136       0.00000           0.132656            3.60976
    137       0.00000           0.135827            3.69604
    138       0.00000           0.141056            3.83834
    139       0.00000           0.145532            3.96012
    140       0.00000           0.149384            4.06495
    141       0.00000           0.154583            4.20641
    142       0.00000           0.157160            4.27655
    143       0.00000           0.160486            4.36704
    144       0.00000           0.162943            4.43391
    145       0.00000           0.173240            4.71409
    146       0.00000           0.175511            4.77590
    147       0.00000           0.176869            4.81286
    148       0.00000           0.177837            4.83919
    149       0.00000           0.181791            4.94678
    150       0.00000           0.183870            5.00337
    151       0.00000           0.187642            5.10601
    152       0.00000           0.197077            5.36273
    153       0.00000           0.198089            5.39029
    154       0.00000           0.202852            5.51989
    155       0.00000           0.205831            5.60095
    156       0.00000           0.210440            5.72637
    157       0.00000           0.216458            5.89011
    158       0.00000           0.218403            5.94304
    159       0.00000           0.224602            6.11173
    160       0.00000           0.228884            6.22824
    161       0.00000           0.238924            6.50145
    162       0.00000           0.241312            6.56642
    163       0.00000           0.243088            6.61477
    164       0.00000           0.248531            6.76288
    165       0.00000           0.249422            6.78712
    166       0.00000           0.257576            7.00900
    167       0.00000           0.257931            7.01865
    168       0.00000           0.258666            7.03865

  Highest occupied state (VBM) at     -9.95458905 eV
  | Occupation number:      2.00000000

  Lowest unoccupied state (CBM) at    -7.54693559 eV
  | Occupation number:      0.00000000

  Overall HOMO-LUMO gap:      2.40765346 eV.
  Calculating total energy contributions from superposition of free atom densities.

  Total energy components:
  | Sum of eigenvalues            :        -558.33618546 Ha      -15193.10062278 eV
  | XC energy correction          :        -131.64175497 Ha       -3582.15441085 eV
  | XC potential correction       :         169.08985120 Ha        4601.16895614 eV
  | Free-atom electrostatic energy:        -401.62022481 Ha      -10928.64236024 eV
  | Hartree energy correction     :           0.00000000 Ha           0.00000000 eV
  | Entropy correction            :           0.00000000 Ha           0.00000000 eV
  | ---------------------------
  | Total energy                  :        -922.50831404 Ha      -25102.72843773 eV
  | Total energy, T -> 0          :        -922.50831404 Ha      -25102.72843773 eV  <-- do not rely on this value for anything but (periodic) metals
  | Electronic free energy        :        -922.50831404 Ha      -25102.72843773 eV

  Derived energy quantities:
  | Kinetic energy                :         914.79022896 Ha       24892.70865705 eV
  | Electrostatic energy          :       -1705.65678802 Ha      -46413.28268393 eV
  | Energy correction for multipole
  | error in Hartree potential    :           0.00000000 Ha           0.00000000 eV
  | Sum of eigenvalues per atom                           :        -422.03057285 eV
  | Total energy (T->0) per atom                          :        -697.29801216 eV  <-- do not rely on this value for anything but (periodic) metals
  | Electronic free energy per atom                       :        -697.29801216 eV
  Initialize hartree_potential_storage
  Max. number of atoms included in rho_multipole:           36

  End scf initialization - timings             :  max(cpu_time)    wall_clock(cpu1)
  | Time for scf. initialization               :        5.047 s           5.093 s
  | Boundary condition initialization          :        0.001 s           0.003 s
  | Integration                                :        3.880 s           3.885 s
  | Solution of K.-S. eqns.                    :        0.149 s           0.162 s
  | Grid partitioning                          :        0.501 s           0.504 s
  | Preloading free-atom quantities on grid    :        0.013 s           0.016 s
  | Free-atom superposition energy             :        0.042 s           0.042 s
  | Total energy evaluation                    :        0.001 s           0.003 s

  Partial memory accounting:
  | Current value for overall tracked memory usage on task 0  :           2.545 MB
  | Peak value for overall tracked memory usage on task 0     :          23.726 MB after allocating zora_vector2
  | Largest tracked array allocation on task 0 so far         :           6.919 MB  when allocating hamiltonian_shell
  Note:  These values currently only include a subset of arrays which are explicitly tracked.
  The "true" memory usage will be greater.
------------------------------------------------------------

------------------------------------------------------------
          Begin self-consistency iteration #    1

  Date     :  20210620, Time     :  174645.357
------------------------------------------------------------
  Evaluating new KS density.
  Integration grid: deviation in total charge (<rho> - N_e) =   5.684342E-14
  Pulay mixing of updated and previous charge densities.

  Evaluating partitioned Hartree potential by multipole expansion.
  | Analytical far-field extrapolation by fixed multipoles:
  | Hartree multipole sum: apparent total charge =  -0.248173E-04
  Summing up the Hartree potential with load balancing.
  Time summed over all CPUs for potential: real work       15.185 s, elapsed       24.196 s
  | RMS charge density error from multipole expansion :   0.115598E-01

  Start compute_balanced_batch_distribution
  Done load balancing, time needed:      0.005 s
  Integrating Hamiltonian matrix: batch-based integration with load balancing
  Time summed over all CPUs for integration: real work      107.104 s, elapsed      118.602 s
  Time get_set_full_local_matrix_scalapack:     0.012406 s
  Start compute_balanced_batch_distribution
  Done load balancing, time needed:      0.005 s

  Updating Kohn-Sham eigenvalues and eigenvectors using ELSI and the ELPA eigensolver.
  Finished transformation to standard eigenproblem
  | Time :     0.010 s
  Starting ELPA eigensolver
  Finished solving standard eigenproblem
  | Time :     0.055 s
  Finished back-transformation of eigenvectors
  | Time :     0.003 s

  Obtaining occupation numbers and chemical potential using ELSI.
  | Chemical potential (Fermi level):    -6.01770152 eV
  Writing Kohn-Sham eigenvalues.

  State    Occupation    Eigenvalue [Ha]    Eigenvalue [eV]
      1       2.00000          -9.998282         -272.06711
      2       2.00000          -9.983376         -271.66149
      3       2.00000          -9.978191         -271.52039
      4       2.00000          -9.976641         -271.47821
      5       2.00000          -9.975104         -271.43639
      6       2.00000          -9.974760         -271.42702
      7       2.00000          -9.970889         -271.32168
      8       2.00000          -9.964135         -271.13791
      9       2.00000          -9.961558         -271.06779
     10       2.00000          -9.961238         -271.05906
     11       2.00000          -9.960818         -271.04765
     12       2.00000          -9.959485         -271.01137
     13       2.00000          -9.958212         -270.97673
     14       2.00000          -9.956308         -270.92494
     15       2.00000          -9.955419         -270.90072
     16       2.00000          -9.953225         -270.84104
     17       2.00000          -9.950722         -270.77292
     18       2.00000          -9.949924         -270.75120
     19       2.00000          -9.949183         -270.73105
     20       2.00000          -9.946950         -270.67028
     21       2.00000          -9.946015         -270.64484
     22       2.00000          -9.940512         -270.49511
     23       2.00000          -9.939688         -270.47266
     24       2.00000          -9.937452         -270.41182
     25       2.00000          -0.888697          -24.18266
     26       2.00000          -0.863797          -23.50511
     27       2.00000          -0.834790          -22.71579
     28       2.00000          -0.818950          -22.28477
     29       2.00000          -0.810109          -22.04419
     30       2.00000          -0.785507          -21.37473
     31       2.00000          -0.772866          -21.03076
     32       2.00000          -0.741544          -20.17845
     33       2.00000          -0.722111          -19.64963
     34       2.00000          -0.715846          -19.47917
     35       2.00000          -0.711795          -19.36893
     36       2.00000          -0.700953          -19.07390
     37       2.00000          -0.652947          -17.76760
     38       2.00000          -0.637924          -17.35878
     39       2.00000          -0.624657          -16.99779
     40       2.00000          -0.607131          -16.52087
     41       2.00000          -0.602452          -16.39355
     42       2.00000          -0.595687          -16.20946
     43       2.00000          -0.564942          -15.37285
     44       2.00000          -0.549738          -14.95914
     45       2.00000          -0.538024          -14.64038
     46       2.00000          -0.532290          -14.48435
     47       2.00000          -0.511647          -13.92262
     48       2.00000          -0.497807          -13.54601
     49       2.00000          -0.490367          -13.34356
     50       2.00000          -0.480843          -13.08440
     51       2.00000          -0.474757          -12.91880
     52       2.00000          -0.456936          -12.43385
     53       2.00000          -0.454596          -12.37020
     54       2.00000          -0.442448          -12.03961
     55       2.00000          -0.435449          -11.84916
     56       2.00000          -0.430805          -11.72281
     57       2.00000          -0.429240          -11.68022
     58       2.00000          -0.426264          -11.59924
     59       2.00000          -0.421952          -11.48189
     60       2.00000          -0.415546          -11.30758
     61       2.00000          -0.401249          -10.91854
     62       2.00000          -0.398645          -10.84768
     63       2.00000          -0.391384          -10.65010
     64       2.00000          -0.378339          -10.29514
     65       2.00000          -0.373386          -10.16035
     66       2.00000          -0.362108           -9.85346
     67       2.00000          -0.356159           -9.69158
     68       2.00000          -0.354365           -9.64278
     69       2.00000          -0.349321           -9.50551
     70       2.00000          -0.343995           -9.36057
     71       2.00000          -0.339527           -9.23899
     72       2.00000          -0.313523           -8.53138
     73       2.00000          -0.307403           -8.36487
     74       2.00000          -0.279269           -7.59930
     75       2.00000          -0.253874           -6.90826
     76       2.00000          -0.249062           -6.77732
     77       2.00000          -0.247740           -6.74134
     78       2.00000          -0.237882           -6.47310
     79       0.00000          -0.154672           -4.20885
     80       0.00000          -0.127420           -3.46727
     81       0.00000          -0.106196           -2.88973
     82       0.00000          -0.072238           -1.96569
     83       0.00000          -0.062656           -1.70494
     84       0.00000          -0.052276           -1.42250
     85       0.00000          -0.032919           -0.89578
     86       0.00000          -0.026374           -0.71768
     87       0.00000          -0.024012           -0.65339
     88       0.00000          -0.017469           -0.47536
     89       0.00000          -0.008032           -0.21857
     90       0.00000          -0.007579           -0.20624
     91       0.00000          -0.005145           -0.14000
     92       0.00000           0.007154            0.19467
     93       0.00000           0.009715            0.26437
     94       0.00000           0.015780            0.42941
     95       0.00000           0.025827            0.70278
     96       0.00000           0.029862            0.81259
     97       0.00000           0.049311            1.34181
     98       0.00000           0.055643            1.51413
     99       0.00000           0.058618            1.59509
    100       0.00000           0.060770            1.65364
    101       0.00000           0.066228            1.80215
    102       0.00000           0.076541            2.08279
    103       0.00000           0.084930            2.31105
    104       0.00000           0.088327            2.40349
    105       0.00000           0.092742            2.52363
    106       0.00000           0.095600            2.60142
    107       0.00000           0.099157            2.69819
    108       0.00000           0.102104            2.77838
    109       0.00000           0.106548            2.89931
    110       0.00000           0.107921            2.93667
    111       0.00000           0.112657            3.06555
    112       0.00000           0.114742            3.12228
    113       0.00000           0.119930            3.26346
    114       0.00000           0.127660            3.47379
    115       0.00000           0.129773            3.53130
    116       0.00000           0.131273            3.57213
    117       0.00000           0.135243            3.68014
    118       0.00000           0.136810            3.72280
    119       0.00000           0.143433            3.90302
    120       0.00000           0.145918            3.97062
    121       0.00000           0.150752            4.10218
    122       0.00000           0.153456            4.17575
    123       0.00000           0.160863            4.37730
    124       0.00000           0.161237            4.38748
    125       0.00000           0.164300            4.47083
    126       0.00000           0.170087            4.62830
    127       0.00000           0.172196            4.68568
    128       0.00000           0.174806            4.75670
    129       0.00000           0.177351            4.82597
    130       0.00000           0.180146            4.90203
    131       0.00000           0.182443            4.96452
    132       0.00000           0.184083            5.00915
    133       0.00000           0.192717            5.24410
    134       0.00000           0.195126            5.30966
    135       0.00000           0.197701            5.37973
    136       0.00000           0.201369            5.47952
    137       0.00000           0.203585            5.53983
    138       0.00000           0.213581            5.81185
    139       0.00000           0.215034            5.85136
    140       0.00000           0.219098            5.96195
    141       0.00000           0.222708            6.06020
    142       0.00000           0.225896            6.14694
    143       0.00000           0.228952            6.23011
    144       0.00000           0.230286            6.26640
    145       0.00000           0.237227            6.45528
    146       0.00000           0.240212            6.53650
    147       0.00000           0.241460            6.57046
    148       0.00000           0.247211            6.72695
    149       0.00000           0.253336            6.89362
    150       0.00000           0.264737            7.20386
    151       0.00000           0.270497            7.36060
    152       0.00000           0.272833            7.42415
    153       0.00000           0.278282            7.57243
    154       0.00000           0.282240            7.68014
    155       0.00000           0.286743            7.80267
    156       0.00000           0.293878            7.99682
    157       0.00000           0.295185            8.03240
    158       0.00000           0.298946            8.13474
    159       0.00000           0.299197            8.14158
    160       0.00000           0.302790            8.23935
    161       0.00000           0.306704            8.34585
    162       0.00000           0.312863            8.51342
    163       0.00000           0.316219            8.60476
    164       0.00000           0.324726            8.83625
    165       0.00000           0.331251            9.01381
    166       0.00000           0.333716            9.08086
    167       0.00000           0.339853            9.24788
    168       0.00000           0.344473            9.37359

  Highest occupied state (VBM) at     -6.47309889 eV
  | Occupation number:      2.00000000

  Lowest unoccupied state (CBM) at    -4.20885027 eV
  | Occupation number:      0.00000000

  Overall HOMO-LUMO gap:      2.26424862 eV.

  Total energy components:
  | Sum of eigenvalues            :        -533.25345773 Ha      -14510.56487418 eV
  | XC energy correction          :        -133.23556277 Ha       -3625.52412749 eV
  | XC potential correction       :         171.16123195 Ha        4657.53409413 eV
  | Free-atom electrostatic energy:        -401.62022481 Ha      -10928.64236024 eV
  | Hartree energy correction     :         -24.78330529 Ha        -674.38804952 eV
  | Entropy correction            :           0.00000000 Ha           0.00000000 eV
  | ---------------------------
  | Total energy                  :        -921.73131864 Ha      -25081.58531730 eV
  | Total energy, T -> 0          :        -921.73131864 Ha      -25081.58531730 eV  <-- do not rely on this value for anything but (periodic) metals
  | Electronic free energy        :        -921.73131864 Ha      -25081.58531730 eV

  Derived energy quantities:
  | Kinetic energy                :         921.82885444 Ha       25084.23940132 eV
  | Electrostatic energy          :       -1710.32461032 Ha      -46540.30059113 eV
  | Energy correction for multipole
  | error in Hartree potential    :          -0.05358570 Ha          -1.45814097 eV
  | Sum of eigenvalues per atom                           :        -403.07124650 eV
  | Total energy (T->0) per atom                          :        -696.71070326 eV  <-- do not rely on this value for anything but (periodic) metals
  | Electronic free energy per atom                       :        -696.71070326 eV

  Self-consistency convergence accuracy:
  | Change of charge density      :  0.9488E+00
  | Change of sum of eigenvalues  :  0.6825E+03 eV
  | Change of total energy        :  0.2114E+02 eV

  End self-consistency iteration #     1       :  max(cpu_time)    wall_clock(cpu1)
  | Time for this iteration                    :        3.473 s           3.479 s
  | Charge density update                      :        0.785 s           0.786 s
  | Density mixing                             :        0.002 s           0.003 s
  | Hartree multipole update                   :        0.011 s           0.012 s
  | Hartree multipole summation                :        0.440 s           0.442 s
  | Integration                                :        2.122 s           2.122 s
  | Solution of K.-S. eqns.                    :        0.099 s           0.100 s
  | Total energy evaluation                    :        0.000 s           0.000 s

  Partial memory accounting:
  | Current value for overall tracked memory usage on task 0  :           2.545 MB
  | Peak value for overall tracked memory usage on task 0     :          24.042 MB after allocating zora_vector2
  | Largest tracked array allocation on task 0 so far         :           6.919 MB  when allocating hamiltonian_shell
  Note:  These values currently only include a subset of arrays which are explicitly tracked.
  The "true" memory usage will be greater.
------------------------------------------------------------

------------------------------------------------------------
          Begin self-consistency iteration #    2

  Date     :  20210620, Time     :  174648.846
------------------------------------------------------------
  Evaluating new KS density.
  Integration grid: deviation in total charge (<rho> - N_e) =   1.421085E-13
  Pulay mixing of updated and previous charge densities.

  Evaluating partitioned Hartree potential by multipole expansion.
  | Analytical far-field extrapolation by fixed multipoles:
  | Hartree multipole sum: apparent total charge =  -0.256699E-04
  Summing up the Hartree potential with load balancing.
  Time summed over all CPUs for potential: real work       15.232 s, elapsed       17.338 s
  | RMS charge density error from multipole expansion :   0.206110E-01

  Integrating Hamiltonian matrix: batch-based integration with load balancing
  Time summed over all CPUs for integration: real work      108.659 s, elapsed      113.790 s
  Time get_set_full_local_matrix_scalapack:     0.017616 s

  Updating Kohn-Sham eigenvalues and eigenvectors using ELSI and the ELPA eigensolver.
  Finished transformation to standard eigenproblem
  | Time :     0.010 s
  Starting ELPA eigensolver
  Finished solving standard eigenproblem
  | Time :     0.058 s
  Finished back-transformation of eigenvectors
  | Time :     0.003 s

  Obtaining occupation numbers and chemical potential using ELSI.
  | Chemical potential (Fermi level):    -5.25038133 eV
  Highest occupied state (VBM) at     -5.48747941 eV
  | Occupation number:      2.00000000

  Lowest unoccupied state (CBM) at    -3.21736701 eV
  | Occupation number:      0.00000000

  Overall HOMO-LUMO gap:      2.27011240 eV.

  Checking to see if s.c.f. parameters should be adjusted.

  Total energy components:
  | Sum of eigenvalues            :        -525.19467470 Ha      -14291.27423048 eV
  | XC energy correction          :        -133.96231563 Ha       -3645.30007898 eV
  | XC potential correction       :         172.09846359 Ha        4683.03746460 eV
  | Free-atom electrostatic energy:        -401.62022481 Ha      -10928.64236024 eV
  | Hartree energy correction     :         -32.94971280 Ha        -896.60730424 eV
  | Entropy correction            :           0.00000000 Ha           0.00000000 eV
  | ---------------------------
  | Total energy                  :        -921.62846434 Ha      -25078.78650935 eV
  | Total energy, T -> 0          :        -921.62846434 Ha      -25078.78650935 eV  <-- do not rely on this value for anything but (periodic) metals
  | Electronic free energy        :        -921.62846434 Ha      -25078.78650935 eV

  Derived energy quantities:
  | Kinetic energy                :         921.78095244 Ha       25082.93592166 eV
  | Electrostatic energy          :       -1709.44710116 Ha      -46516.42235203 eV
  | Energy correction for multipole
  | error in Hartree potential    :          -0.08828529 Ha          -2.40236485 eV
  | Sum of eigenvalues per atom                           :        -396.97983974 eV
  | Total energy (T->0) per atom                          :        -696.63295859 eV  <-- do not rely on this value for anything but (periodic) metals
  | Electronic free energy per atom                       :        -696.63295859 eV

  Self-consistency convergence accuracy:
  | Change of charge density      :  0.4648E+00
  | Change of sum of eigenvalues  :  0.2193E+03 eV
  | Change of total energy        :  0.2799E+01 eV

  End self-consistency iteration #     2       :  max(cpu_time)    wall_clock(cpu1)
  | Time for this iteration                    :        3.246 s           3.254 s
  | Charge density update                      :        0.780 s           0.780 s
  | Density mixing                             :        0.003 s           0.009 s
  | Hartree multipole update                   :        0.007 s           0.008 s
  | Hartree multipole summation                :        0.312 s           0.311 s
  | Integration                                :        2.035 s           2.036 s
  | Solution of K.-S. eqns.                    :        0.102 s           0.102 s
  | Total energy evaluation                    :        0.001 s           0.003 s

  Partial memory accounting:
  | Current value for overall tracked memory usage on task 0  :           2.545 MB
  | Peak value for overall tracked memory usage on task 0     :          24.042 MB after allocating zora_vector2
  | Largest tracked array allocation on task 0 so far         :           6.919 MB  when allocating hamiltonian_shell
  Note:  These values currently only include a subset of arrays which are explicitly tracked.
  The "true" memory usage will be greater.
------------------------------------------------------------

------------------------------------------------------------
          Begin self-consistency iteration #    3

  Date     :  20210620, Time     :  174652.103
------------------------------------------------------------
  Evaluating new KS density.
  Integration grid: deviation in total charge (<rho> - N_e) =   2.273737E-13
  Pulay mixing of updated and previous charge densities.

  Evaluating partitioned Hartree potential by multipole expansion.
  | Analytical far-field extrapolation by fixed multipoles:
  | Hartree multipole sum: apparent total charge =  -0.253813E-04
[...]
  Time get_set_sparse_local_matrix_scalapack:     2.905475 s
  Writing Kohn-Sham eigenvalues.

  State    Occupation    Eigenvalue [Ha]    Eigenvalue [eV]
      1       2.00000          -9.920635         -269.95422
      2       2.00000          -9.911378         -269.70233
      3       2.00000          -9.911214         -269.69785
      4       2.00000          -9.910871         -269.68852
      5       2.00000          -9.909534         -269.65213
      6       2.00000          -9.908512         -269.62432
      7       2.00000          -9.908321         -269.61912
      8       2.00000          -9.905591         -269.54486
      9       2.00000          -9.904708         -269.52083
     10       2.00000          -9.904619         -269.51841
     11       2.00000          -9.904057         -269.50312
     12       2.00000          -9.903983         -269.50110
     13       2.00000          -9.903471         -269.48715
     14       2.00000          -9.901941         -269.44553
     15       2.00000          -9.899950         -269.39136
     16       2.00000          -9.899910         -269.39025
     17       2.00000          -9.899881         -269.38947
     18       2.00000          -9.899046         -269.36675
     19       2.00000          -9.896813         -269.30598
     20       2.00000          -9.896646         -269.30143
     21       2.00000          -9.891993         -269.17482
     22       2.00000          -9.889422         -269.10487
     23       2.00000          -9.888610         -269.08278
     24       2.00000          -9.885490         -268.99788
     25       2.00000          -0.841196          -22.89012
     26       2.00000          -0.817351          -22.24125
     27       2.00000          -0.784086          -21.33606
     28       2.00000          -0.767048          -20.87244
     29       2.00000          -0.758995          -20.65330
     30       2.00000          -0.732916          -19.94366
     31       2.00000          -0.719534          -19.57951
     32       2.00000          -0.687385          -18.70470
     33       2.00000          -0.666501          -18.13641
     34       2.00000          -0.661245          -17.99339
     35       2.00000          -0.656473          -17.86354
     36       2.00000          -0.647200          -17.61122
     37       2.00000          -0.598320          -16.28113
     38       2.00000          -0.582273          -15.84444
     39       2.00000          -0.568023          -15.45670
     40       2.00000          -0.550596          -14.98248
     41       2.00000          -0.544893          -14.82731
     42       2.00000          -0.540165          -14.69863
     43       2.00000          -0.507690          -13.81495
     44       2.00000          -0.491818          -13.38305
     45       2.00000          -0.479307          -13.04260
     46       2.00000          -0.474650          -12.91587
     47       2.00000          -0.452437          -12.31144
     48       2.00000          -0.438783          -11.93990
     49       2.00000          -0.431481          -11.74121
     50       2.00000          -0.421674          -11.47434
     51       2.00000          -0.417168          -11.35173
     52       2.00000          -0.399459          -10.86984
     53       2.00000          -0.396027          -10.77644
     54       2.00000          -0.394599          -10.73758
     55       2.00000          -0.381483          -10.38067
     56       2.00000          -0.376002          -10.23152
     57       2.00000          -0.371481          -10.10852
     58       2.00000          -0.367789          -10.00805
     59       2.00000          -0.366658           -9.97726
     60       2.00000          -0.361629           -9.84043
     61       2.00000          -0.354303           -9.64108
     62       2.00000          -0.338999           -9.22462
     63       2.00000          -0.334899           -9.11306
     64       2.00000          -0.330936           -9.00523
     65       2.00000          -0.319907           -8.70510
     66       2.00000          -0.317292           -8.63395
     67       2.00000          -0.305099           -8.30216
     68       2.00000          -0.302529           -8.23223
     69       2.00000          -0.296765           -8.07539
     70       2.00000          -0.291351           -7.92807
     71       2.00000          -0.280934           -7.64461
     72       2.00000          -0.274742           -7.47610
     73       2.00000          -0.267475           -7.27837
     74       2.00000          -0.240530           -6.54515
     75       2.00000          -0.214189           -5.82838
     76       2.00000          -0.210594           -5.73057
     77       2.00000          -0.207726           -5.65252
     78       2.00000          -0.198746           -5.40815
     79       0.00000          -0.115020           -3.12986
     80       0.00000          -0.086519           -2.35431
     81       0.00000          -0.064749           -1.76191
     82       0.00000          -0.031234           -0.84991
     83       0.00000          -0.022423           -0.61015
     84       0.00000          -0.013507           -0.36755
     85       0.00000          -0.004996           -0.13594
     86       0.00000          -0.001368           -0.03721
     87       0.00000           0.003438            0.09355
     88       0.00000           0.007307            0.19884
     89       0.00000           0.013349            0.36324
     90       0.00000           0.015155            0.41238
     91       0.00000           0.028307            0.77027
     92       0.00000           0.031061            0.84520
     93       0.00000           0.035369            0.96243
     94       0.00000           0.048611            1.32277
     95       0.00000           0.051645            1.40533
     96       0.00000           0.056599            1.54014
     97       0.00000           0.072410            1.97038
     98       0.00000           0.076806            2.08999
     99       0.00000           0.082956            2.25734
    100       0.00000           0.090195            2.45433
    101       0.00000           0.095160            2.58945
    102       0.00000           0.102708            2.79481
    103       0.00000           0.102836            2.79831
    104       0.00000           0.111825            3.04291
    105       0.00000           0.120813            3.28748
    106       0.00000           0.124177            3.37903
    107       0.00000           0.126587            3.44461
    108       0.00000           0.130472            3.55031
    109       0.00000           0.131144            3.56861
    110       0.00000           0.133289            3.62697
    111       0.00000           0.145422            3.95714
    112       0.00000           0.147935            4.02552
    113       0.00000           0.148550            4.04225
    114       0.00000           0.152215            4.14199
    115       0.00000           0.160504            4.36755
    116       0.00000           0.161448            4.39324
    117       0.00000           0.163446            4.44760
    118       0.00000           0.170032            4.62680
    119       0.00000           0.171835            4.67587
    120       0.00000           0.175093            4.76452
    121       0.00000           0.180012            4.89836
    122       0.00000           0.186353            5.07092
    123       0.00000           0.188909            5.14047
    124       0.00000           0.192012            5.22490
    125       0.00000           0.196837            5.35621
    126       0.00000           0.199289            5.42293
    127       0.00000           0.202094            5.49926
    128       0.00000           0.205019            5.57884
    129       0.00000           0.209169            5.69178
    130       0.00000           0.212792            5.79036
    131       0.00000           0.213747            5.81635
    132       0.00000           0.216829            5.90021
    133       0.00000           0.221061            6.01537
    134       0.00000           0.226388            6.16032
    135       0.00000           0.229004            6.23152
    136       0.00000           0.233724            6.35996
    137       0.00000           0.239979            6.53016
    138       0.00000           0.241269            6.56528
    139       0.00000           0.243509            6.62622
    140       0.00000           0.245082            6.66901
    141       0.00000           0.249775            6.79672
    142       0.00000           0.254171            6.91633
    143       0.00000           0.257677            7.01174
    144       0.00000           0.260547            7.08986
    145       0.00000           0.265794            7.23261
    146       0.00000           0.270005            7.34721
    147       0.00000           0.275926            7.50833
    148       0.00000           0.285082            7.75748
    149       0.00000           0.289964            7.89033
    150       0.00000           0.292219            7.95169
    151       0.00000           0.296407            8.06564
    152       0.00000           0.303562            8.26034
    153       0.00000           0.310391            8.44617
    154       0.00000           0.315145            8.57553
    155       0.00000           0.315936            8.59704
    156       0.00000           0.319613            8.69711
    157       0.00000           0.320712            8.72702
    158       0.00000           0.324192            8.82171
    159       0.00000           0.327083            8.90038
    160       0.00000           0.337018            9.17072
    161       0.00000           0.338942            9.22309
    162       0.00000           0.350299            9.53213
    163       0.00000           0.351836            9.57395
    164       0.00000           0.353964            9.63185
    165       0.00000           0.356443            9.69931
    166       0.00000           0.368194           10.01906
    167       0.00000           0.370087           10.07058
    168       0.00000           0.374333           10.18612

  Highest occupied state (VBM) at     -5.40814685 eV
  | Occupation number:      2.00000000

  Lowest unoccupied state (CBM) at    -3.12986400 eV
  | Occupation number:      0.00000000

  Overall HOMO-LUMO gap:      2.27828285 eV.

  Total energy components:
  | Sum of eigenvalues            :        -524.79589783 Ha      -14280.42295991 eV
  | XC energy correction          :        -133.95152748 Ha       -3645.00651870 eV
  | XC potential correction       :         172.08013305 Ha        4682.53866531 eV
  | Free-atom electrostatic energy:        -401.62022481 Ha      -10928.64236024 eV
  | Hartree energy correction     :         -33.12984480 Ha        -901.50894525 eV
  | Entropy correction            :           0.00000000 Ha           0.00000000 eV
  | ---------------------------
  | Total energy                  :        -921.41736187 Ha      -25073.04211880 eV
  | Total energy, T -> 0          :        -921.41736187 Ha      -25073.04211880 eV  <-- do not rely on this value for anything but (periodic) metals
  | Electronic free energy        :        -921.41736187 Ha      -25073.04211880 eV

  Derived energy quantities:
  | Kinetic energy                :         919.22973290 Ha       25013.51370581 eV
  | Electrostatic energy          :       -1706.69556729 Ha      -46441.54930590 eV
  | Energy correction for multipole
  | error in Hartree potential    :          -0.10062592 Ha          -2.73817061 eV
  | Sum of eigenvalues per atom                           :        -396.67841555 eV
  | Total energy (T->0) per atom                          :        -696.47339219 eV  <-- do not rely on this value for anything but (periodic) metals
  | Electronic free energy per atom                       :        -696.47339219 eV
  End evaluation of scaled ZORA corrections.
  | Time for scaled ZORA corrections           :        3.702 s           3.703 s
------------------------------------------------------------

  Energy and forces in a compact form:
  | Total energy uncorrected      :         -0.250730421188021E+05 eV
  | Total energy corrected        :         -0.250730421188021E+05 eV  <-- do not rely on this value for anything but (periodic) metals
  | Electronic free energy        :         -0.250730421188021E+05 eV

  ------------------------------------ 
  Start decomposition of the XC Energy 
  ------------------------------------ 
  X and C from original XC functional choice 
  Hartree-Fock Energy :          0.000000000 Ha              0.000000000 eV
  X Energy            :       -128.689501437 Ha          -3501.819504720 eV
  C Energy            :         -5.262026046 Ha           -143.187013985 eV
  Total XC Energy     :       -133.951527483 Ha          -3645.006518705 eV
  ------------------------------------ 
  LDA X and C from self-consistent density 
  X Energy LDA        :       -116.578917238 Ha          -3172.273741569 eV
  C Energy LDA        :        -10.116240763 Ha           -275.276917086 eV
  ------------------------------------ 
  End decomposition of the XC Energy 
  ------------------------------------ 

------------------------------------------------------------

------------------------------------------------------------------------------
  Final output of selected total energy values:

  The following output summarizes some interesting total energy values
  at the end of a run (AFTER all relaxation, molecular dynamics, etc.).

  | Total energy of the DFT / Hartree-Fock s.c.f. calculation      :         -25073.042118802 eV
  | Final zero-broadening corrected energy (caution - metals only) :         -25073.042118802 eV
  | For reference only, the value of 1 Hartree used in FHI-aims is :             27.211384500 eV

  Before relying on these values, please be sure to understand exactly which
  total energy value is referred to by a given number. Different objects may
  all carry the same name 'total energy'. Definitions:

  Total energy of the DFT / Hartree-Fock s.c.f. calculation:
  | Note that this energy does not include ANY quantities calculated after the
  | s.c.f. cycle, in particular not ANY RPA, MP2, etc. many-body perturbation terms.
  | Scalar relativistic effects have been included in the 'scaled ZORA' approximation.

  Final zero-broadening corrected energy:
  | For metallic systems only, a broadening of the occupation numbers at the Fermi
  | level can be extrapolated back to zero broadening by an electron-gas inspired
  | formula. For all systems that are not real metals, this value can be
  | meaningless and should be avoided.

------------------------------------------------------------------------------
  Methods described in the following list of references were used in this FHI-aims run.
  If you publish the results, please make sure to cite these reference if they apply.
  FHI-aims is an academic code, and for our developers (often, Ph.D. students
  and postdocs), scientific credit in the community is essential.
  Thank you for helping us!

  For any use of FHI-aims, please cite:

    Volker Blum, Ralf Gehrke, Felix Hanke, Paula Havu, Ville Havu,
    Xinguo Ren, Karsten Reuter, and Matthias Scheffler
    'Ab initio molecular simulations with numeric atom-centered orbitals'
    Computer Physics Communications 180, 2175-2196 (2009)
    http://dx.doi.org/10.1016/j.cpc.2009.06.022


  The scalable eigensolver library ELPA was used in your run.
  ELPA is essential especially for large systems on hundreds or thousands of CPUs.
  For ELPA, please cite:

    Andreas Marek, Volker Blum, Rainer Johanni, Ville Havu, Bruno Lang,
    Thomas Auckenthaler, Alexander Heinecke, Hans-Joachim Bungartz, and Hermann Lederer,
    'The ELPA Library - Scalable Parallel Eigenvalue Solutions
    for Electronic Structure Theory and Computational Science'
    The Journal of Physics: Condensed Matter 26, 213201 (2014).
    http://dx.doi.org/10.1088/0953-8984/26/21/213201


  The ELSI infrastructure was used in your run to solve the Kohn-Sham electronic structure.
  Please check out http://elsi-interchange.org to learn more.
  If scalability is important for your project, please acknowledge ELSI by citing:

    V. W-z. Yu, F. Corsetti, A. Garcia, W. P. Huhn, M. Jacquelin, W. Jia,
    B. Lange, L. Lin, J. Lu, W. Mi, A. Seifitokaldani, A. Vazquez-Mayagoitia,
    C. Yang, H. Yang, and V. Blum
    'ELSI: A unified software interface for Kohn-Sham electronic structure solvers'
    Computer Physics Communications 222, 267-285 (2018).
    http://dx.doi.org/10.1016/j.cpc.2017.09.007


  For the real-space grid partitioning and parallelization used in this calculation, please cite:

    Ville Havu, Volker Blum, Paula Havu, and Matthias Scheffler,
    'Efficient O(N) integration for all-electron electronic structure calculation'
    'using numerically tabulated basis functions'
    Journal of Computational Physics 228, 8367-8379 (2009).
    http://dx.doi.org/10.1016/j.jcp.2009.08.008

  Of course, there are many other important community references, e.g., those cited in the
  above references. Our list is limited to references that describe implementations in the
  FHI-aims code. The reason is purely practical (length of this list) - please credit others as well.

------------------------------------------------------------
          Leaving FHI-aims.
          Date     :  20210620, Time     :  174747.752

          Computational steps:
          | Number of self-consistency cycles          :           18
          | Number of SCF (re)initializations          :            1

          Detailed time accounting                     :  max(cpu_time)    wall_clock(cpu1)
          | Total time                                 :       67.702 s          67.880 s
          | Preparation time                           :        0.203 s           0.208 s
          | Boundary condition initalization           :        0.001 s           0.003 s
          | Grid partitioning                          :        0.501 s           0.504 s
          | Preloading free-atom quantities on grid    :        0.013 s           0.016 s
          | Free-atom superposition energy             :        0.042 s           0.042 s
          | Total time for integrations                :       40.585 s          40.590 s
          | Total time for solution of K.-S. equations :        1.906 s           1.926 s
          | Total time for density update              :       14.071 s          14.025 s
          | Total time for mixing                      :        0.103 s           0.111 s
          | Total time for Hartree multipole update    :        0.133 s           0.141 s
          | Total time for Hartree multipole sum       :        5.739 s           5.742 s
          | Total time for total energy evaluation     :        0.007 s           0.035 s
          | Total time for scaled ZORA corrections     :        3.702 s           3.703 s

          Partial memory accounting:
          | Residual value for overall tracked memory usage across tasks :     0.000000 MB (should be 0.000000 MB)
          | Peak values for overall tracked memory usage (after allocating zora_vector2):
          |   Minimum:       23.918 MB (on task  2)
          |   Maximum:       28.953 MB (on task 14)
          |   Average:       26.225 MB
          | Largest tracked array allocation (hamiltonian_shell):
          |   Minimum:        6.919 MB (on task  1)
          |   Maximum:        6.919 MB (on task  1)
          |   Average:        6.919 MB
          Note:  These values currently only include a subset of arrays which are explicitly tracked.
          The "true" memory usage will be greater.

          Have a nice day.
------------------------------------------------------------
