  MPI-parallelism will be employed.
------------------------------------------------------------
          Invoking FHI-aims ...
          Version 180607
          Git rev. (modified): 6724847 Fix JSON memory corruption in scf_solver
          Compiled on 2018/06/27 at 16:00:31 on host coe.psc.edu.

          When using FHI-aims, please cite the following reference:

          Volker Blum, Ralf Gehrke, Felix Hanke, Paula Havu,
          Ville Havu, Xinguo Ren, Karsten Reuter, and Matthias Scheffler,
          'Ab Initio Molecular Simulations with Numeric Atom-Centered Orbitals',
          Computer Physics Communications 180, 2175-2196 (2009)

          For any questions about FHI-aims, please visit the aimsclub website
          with its forums and wiki. Contributions to both the forums and the
          wiki are warmly encouraged - they are for you, and everyone is welcome there.

------------------------------------------------------------



  Date     :  20210620, Time     :  173352.078
  Time zero on CPU 1             :   0.201554000000000E+00  s.
  Internal wall clock time zero  :           393442432.078  s.

  FHI-aims created a unique identifier for this run for later identification
  aims_uuid : EEB65976-3D2A-4007-A310-547813A2EC38

  Using       56 parallel tasks.
  Task        0 on host d001 reporting.
  Task        1 on host d001 reporting.
  Task        2 on host d001 reporting.
  Task        3 on host d001 reporting.
  Task        4 on host d001 reporting.
  Task        5 on host d001 reporting.
  Task        6 on host d001 reporting.
  Task        7 on host d001 reporting.
  Task        8 on host d001 reporting.
  Task        9 on host d001 reporting.
  Task       10 on host d001 reporting.
  Task       11 on host d001 reporting.
  Task       12 on host d001 reporting.
  Task       13 on host d001 reporting.
  Task       14 on host d001 reporting.
  Task       15 on host d001 reporting.
  Task       16 on host d001 reporting.
  Task       17 on host d001 reporting.
  Task       18 on host d001 reporting.
  Task       19 on host d001 reporting.
  Task       20 on host d001 reporting.
  Task       21 on host d001 reporting.
  Task       22 on host d001 reporting.
  Task       23 on host d001 reporting.
  Task       24 on host d001 reporting.
  Task       25 on host d001 reporting.
  Task       26 on host d001 reporting.
  Task       27 on host d001 reporting.
  Task       28 on host d001 reporting.
  Task       29 on host d001 reporting.
  Task       30 on host d001 reporting.
  Task       31 on host d001 reporting.
  Task       32 on host d001 reporting.
  Task       33 on host d001 reporting.
  Task       34 on host d001 reporting.
  Task       35 on host d001 reporting.
  Task       36 on host d001 reporting.
  Task       37 on host d001 reporting.
  Task       38 on host d001 reporting.
  Task       39 on host d001 reporting.
  Task       40 on host d001 reporting.
  Task       41 on host d001 reporting.
  Task       42 on host d001 reporting.
  Task       43 on host d001 reporting.
  Task       44 on host d001 reporting.
  Task       45 on host d001 reporting.
  Task       46 on host d001 reporting.
  Task       47 on host d001 reporting.
  Task       48 on host d001 reporting.
  Task       49 on host d001 reporting.
  Task       50 on host d001 reporting.
  Task       51 on host d001 reporting.
  Task       52 on host d001 reporting.
  Task       53 on host d001 reporting.
  Task       54 on host d001 reporting.
  Task       55 on host d001 reporting.

  Performing system and environment tests:
  *** Environment variable OMP_NUM_THREADS is not set
  *** For performance reasons you might want to set it to 1
  | Stacksize not measured: no C compiler
  | Checking for scalapack...
  | Testing pdtran()...
  | All pdtran() tests passed.

  Obtaining array dimensions for all initial allocations:
  
  -----------------------------------------------------------------------
  Parsing control.in (first pass over file, find array dimensions only).
  The contents of control.in will be repeated verbatim below
  unless switched off by setting 'verbatim_writeout .false.' .
  in the first line of control.in .
  -----------------------------------------------------------------------
  
  #===============================================================================
  # FHI-aims file: ./Runs/es/control.in
  # Created using the Atomic Simulation Environment (ASE)
  # Mon Jan 13 16:04:38 2020
  #===============================================================================
  xc                                 pbe
  relativistic                       zora scalar 1e-12
  occupation_type                    gaussian 0.0001
  load_balancing                     .true.
  KS_method                          scalapack_fast
  mixer                              pulay
  n_max_pulay                        5
  charge_mix_param                   0.4
  sc_accuracy_etot                   1e-6
  sc_accuracy_eev                    1e-4
  sc_accuracy_rho                    1e-6
  sc_iter_limit                      100
  prodbas_threshold                  1e-4
  basis_threshold                    1e-5
  override_illconditioning           .true.
  use_logsbt                         .true.
  spin                               none
  charge                             0
  #===============================================================================
  
  ################################################################################
  #
  #  FHI-aims code project
  # Volker Blum, Fritz Haber Institute Berlin, 2009
  #
  #  Suggested "tight" defaults for H atom (to be pasted into control.in file)
  #
  ################################################################################
    species        H
  #     global species definitions
      nucleus             1
      mass                1.00794
  #
      l_hartree           6
  #
      cut_pot             4.0  2.0  1.0
      basis_dep_cutoff    1e-4
  #
      radial_base         24 7.0
      radial_multiplier   2
      angular_grids       specified
        division   0.1930   50
        division   0.3175  110
        division   0.4293  194
        division   0.5066  302
        division   0.5626  434
  #      division   0.5922  590
  #      division   0.6227  974
  #      division   0.6868 1202
  #      outer_grid  770
        outer_grid  434
  ################################################################################
  #
  #  Definition of "minimal" basis
  #
  ################################################################################
  #     valence basis states
      valence      1  s   1.
  #     ion occupancy
      ion_occ      1  s   0.5
  ################################################################################
  #
  #  Suggested additional basis functions. For production calculations,
  #  uncomment them one after another (the most important basis functions are
  #  listed first).
  #
  #  Basis constructed for dimers: 0.5 A, 0.7 A, 1.0 A, 1.5 A, 2.5 A
  #
  ################################################################################
  #  "First tier" - improvements: -1014.90 meV to -62.69 meV
       hydro 2 s 2.1
       hydro 2 p 3.5
  #  "Second tier" - improvements: -12.89 meV to -1.83 meV
       hydro 1 s 0.85
       hydro 2 p 3.7
       hydro 2 s 1.2
       hydro 3 d 7
  #  "Third tier" - improvements: -0.25 meV to -0.12 meV
  #     hydro 4 f 11.2
  #     hydro 3 p 4.8
  #     hydro 4 d 9
  #     hydro 3 s 3.2
  ################################################################################
  #
  # For methods that use the localized form of the "resolution of identity" for
  # the two-electron Coulomb operator (RI_method LVL), particularly Hartree-Fock and
  # hybrid density functional calculations, the highest accuracy can be obtained by
  # uncommenting the line beginning with "for_aux"  below, thus adding an extra g radial
  # function to the construction of the product basis set for the expansion.
  # See Ref. New J. Phys. 17, 093020 (2015) for more information, particularly Figs. 1 and 6.
  #
  ################################################################################
  #
  # for_aux hydro 5 g 6.0
  ################################################################################
  #
  #  FHI-aims code project
  # Volker Blum, Fritz Haber Institute Berlin, 2009
  #
  #  Suggested "tight" defaults for C atom (to be pasted into control.in file)
  #
  ################################################################################
    species        C
  #     global species definitions
      nucleus             6
      mass                12.0107
  #
      l_hartree           6
  #
      cut_pot             4.0  2.0  1.0
      basis_dep_cutoff    1e-4
  #
      radial_base         34 7.0
      radial_multiplier   2
      angular_grids specified
        division   0.2187   50
        division   0.4416  110
        division   0.6335  194
        division   0.7727  302
        division   0.8772  434
  #      division   0.9334  590
  #      division   0.9924  770
  #      division   1.0230  974
  #      division   1.5020 1202
  #     outer_grid  974
        outer_grid  434
  ################################################################################
  #
  #  Definition of "minimal" basis
  #
  ################################################################################
  #     valence basis states
      valence      2  s   2.
      valence      2  p   2.
  #     ion occupancy
      ion_occ      2  s   1.
      ion_occ      2  p   1.
  ################################################################################
  #
  #  Suggested additional basis functions. For production calculations,
  #  uncomment them one after another (the most important basis functions are
  #  listed first).
  #
  #  Constructed for dimers: 1.0 A, 1.25 A, 1.5 A, 2.0 A, 3.0 A
  #
  ################################################################################
  #  "First tier" - improvements: -1214.57 meV to -155.61 meV
       hydro 2 p 1.7
       hydro 3 d 6
       hydro 2 s 4.9
  #  "Second tier" - improvements: -67.75 meV to -5.23 meV
       hydro 4 f 9.8
       hydro 3 p 5.2
       hydro 3 s 4.3
       hydro 5 g 14.4
       hydro 3 d 6.2
  #  "Third tier" - improvements: -2.43 meV to -0.60 meV
  #     hydro 2 p 5.6
  #     hydro 2 s 1.4
  #     hydro 3 d 4.9
  #     hydro 4 f 11.2
  #  "Fourth tier" - improvements: -0.39 meV to -0.18 meV
  #     hydro 2 p 2.1
  #     hydro 5 g 16.4
  #     hydro 4 d 13.2
  #     hydro 3 s 13.6
  #     hydro 4 f 17.6
  #  Further basis functions - improvements: -0.08 meV and below
  #     hydro 3 s 2
  #     hydro 3 p 6
  #     hydro 4 d 20
  ################################################################################
  #
  # For methods that use the localized form of the "resolution of identity" for
  # the two-electron Coulomb operator (RI_method LVL), particularly Hartree-Fock and
  # hybrid density functional calculations, the highest accuracy can be obtained by
  # uncommenting the line beginning with "for_aux"  below, thus adding an extra g radial
  # function to the construction of the product basis set for the expansion.
  # See Ref. New J. Phys. 17, 093020 (2015) for more information, particularly Figs. 1 and 6.
  #
  ################################################################################
  #
  # for_aux hydro 5 g 6.0
  
  -----------------------------------------------------------------------
  Completed first pass over input file control.in .
  -----------------------------------------------------------------------
  
  
  -----------------------------------------------------------------------
  Parsing geometry.in (first pass over file, find array dimensions only).
  The contents of geometry.in will be repeated verbatim below
  unless switched off by setting 'verbatim_writeout .false.' .
  in the first line of geometry.in .
  -----------------------------------------------------------------------
  
  #=======================================================
  # FHI-aims file: geometry.in
  # Created using the Atomic Simulation Environment (ASE)
  # Sun Jun 20 15:47:01 2021
  #=======================================================
  atom 11.4696449999999999 12.4063680000000005 49.2040199999999999 H
  atom 11.1695499999999992 11.3593799999999998 49.1378210000000024 C
  atom 10.2525800000000000 10.8543489999999991 50.0142080000000036 C
  atom 11.7603399999999993 10.5435850000000002 48.1109819999999999 C
  atom 9.8305199999999999 9.4895949999999996 49.9483850000000018 C
  atom 9.8069260000000007 11.4929579999999998 50.7792590000000033 H
  atom 11.3725900000000006 9.1732540000000000 48.0357559999999992 C
  atom 12.6961099999999991 11.0414860000000008 47.1932210000000012 C
  atom 8.8721899999999998 8.9380159999999993 50.8285330000000002 C
  atom 10.4020399999999995 8.6530889999999996 48.9535169999999979 C
  atom 11.9412900000000004 8.3327120000000008 47.0521719999999988 C
  atom 13.2742100000000001 10.2227130000000006 46.2190409999999972 C
  atom 12.9881679999999999 12.0902799999999999 47.2458799999999997 H
  atom 8.4905500000000007 7.6299120000000000 50.7439030000000031 C
  atom 8.4221649999999997 9.5849100000000007 51.5822999999999965 H
  atom 10.0218100000000003 7.3003819999999999 48.8011839999999992 C
  atom 11.5587099999999996 6.9512530000000003 46.9807070000000024 C
  atom 12.8982100000000006 8.8539019999999997 46.1456950000000035 C
  atom 14.2428799999999995 10.7145050000000008 45.2674280000000024 C
  atom 7.7519920000000004 7.2301289999999998 51.4371129999999965 H
  atom 9.0493799999999993 6.7630790000000003 49.7791259999999980 C
  atom 10.6017899999999994 6.4300639999999998 47.8871839999999978 C
  atom 12.1274099999999994 6.1107120000000004 45.9971230000000020 C
  atom 13.4781899999999997 7.9835839999999996 45.2316959999999995 C
  atom 14.7998300000000000 9.9023699999999995 44.3477859999999993 C
  atom 14.5201329999999995 11.7672910000000002 45.3153849999999991 H
  atom 8.7001700000000000 5.3815960000000000 49.6850930000000020 C
  atom 10.2257899999999999 5.0612529999999998 47.8138379999999970 C
  atom 11.7396600000000007 4.7403810000000002 45.9218970000000013 C
  atom 13.0979600000000005 6.6308769999999999 45.0793620000000033 C
  atom 14.4506200000000007 8.5208860000000008 44.2537540000000007 C
  atom 15.5372129999999995 10.2932369999999995 43.6447969999999970 H
  atom 7.9627869999999996 4.9907290000000000 50.3880830000000017 H
  atom 9.2571200000000005 4.5694610000000004 48.7654509999999988 C
  atom 10.8038900000000009 4.2424799999999996 46.8396580000000000 C
  atom 12.3304500000000008 3.9245860000000001 44.8950579999999988 C
  atom 13.6694800000000001 5.7943709999999999 44.0844939999999994 C
  atom 15.0094499999999993 7.6540540000000004 43.2889759999999981 C
  atom 8.9798670000000005 3.5166750000000002 48.7174940000000021 H
  atom 10.5118320000000001 3.1936860000000000 46.7869990000000016 H
  atom 12.0303550000000001 2.8775979999999999 44.8288590000000013 H
  atom 13.2474200000000000 4.4296170000000004 44.0186709999999977 C
  atom 14.6278100000000002 6.3459500000000002 43.2043469999999985 C
  atom 15.7480080000000005 8.0538369999999997 42.5957659999999976 H
  atom 13.6930739999999993 3.7910080000000002 43.2536199999999980 H
  atom 15.0778350000000003 5.6990559999999997 42.4505789999999976 H
  
  -----------------------------------------------------------------------
  Completed first pass over input file geometry.in .
  -----------------------------------------------------------------------
  

  Basic array size parameters:
  | Number of species                 :        2
  | Number of atoms                   :       46
  | Max. basis fn. angular momentum   :        4
  | Max. atomic/ionic basis occupied n:        2
  | Max. number of basis fn. types    :        2
  | Max. radial fns per species/type  :        8
  | Max. logarithmic grid size        :     1277
  | Max. radial integration grid size :       69
  | Max. angular integration grid size:      434
  | Max. angular grid division number :        8
  | Radial grid for Hartree potential :     1277
  | Number of spin channels           :        1

------------------------------------------------------------
          Reading file control.in.
------------------------------------------------------------
  XC: Using PBE gradient-corrected functionals.
  Scalar relativistic treatment of kinetic energy: ZORA.
  Threshold value for ZORA:   0.100000E-11
  Occupation type: Gaussian broadening, width =   0.100000E-03 eV.
  Since 'load_balancing .true.' is present in control.in, automatically turning on 'use_local_index .true.'.
  Using load balancing for integrations.
  Kohn-Sham electronic structure solved by the ELSI library.
  Using pulay charge density mixing.
  Pulay mixing - number of memorized iterations:    5
  Charge density mixing - mixing parameter:     0.4000
  Convergence accuracy of total energy:  0.1000E-05
  Convergence accuracy of sum of eigenvalues:  0.1000E-03
  Convergence accuracy of self-consistent charge density:  0.1000E-05
  Maximum number of s.-c. iterations  :   100
  * Ignoring prodbas_threshold
  Threshold for basis singularities:  0.1000E-04
  override_illconditioning: Explicitly overriding any built-in checks for an ill-conditioned overlap matrix.
  *** WARNING: If you use this flag, you should really know what you are doing.
  *** DO NOT keep this flag set by default in all your control.in files.
  Using 1D integrations for auxiliary 2-center integrals.
  Spin treatment: No spin polarisation.
  Charge =   0.000000E+00: Neutral system requested explicitly.
 
  Reading configuration options for species H                   .
  | Found nuclear charge :   1.0000
  | Found atomic mass :    1.00794000000000      amu
  | Found l_max for Hartree potential  :   6
  | Found cutoff potl. onset [A], width [A], scale factor :    4.00000    2.00000    1.00000
  | Threshold for basis-dependent cutoff potential is   0.100000E-03
  | Found data for basic radial integration grid :    24 points, outermost radius =    7.000 A
  | Found multiplier for basic radial grid :   2
  | Found angular grid specification: user-specified.
  | Specified grid contains     6 separate shells.
  | Check grid settings after all constraints further below.
  | Found free-atom valence shell :  1 s   1.000
  | No ionic wave fns used. Skipping ion_occ.
  | Found hydrogenic basis function :  2 s   2.100
  | Found hydrogenic basis function :  2 p   3.500
  | Found hydrogenic basis function :  1 s   0.850
  | Found hydrogenic basis function :  2 p   3.700
  | Found hydrogenic basis function :  2 s   1.200
  | Found hydrogenic basis function :  3 d   7.000
  Species H                   : Missing cutoff potential type.
  Defaulting to exp(1/x)/(1-x)^2 type cutoff potential.
  Species H : No 'logarithmic' tag. Using default grid for free atom:
  | Default logarithmic grid data [bohr] : 0.1000E-03 0.1000E+03 0.1012E+01
  Species H : On-site basis accuracy parameter (for Gram-Schmidt orthonormalisation) not specified.
  Using default value basis_acc =  0.1000000E-03.
  Species H                   : Using default innermost maximum threshold i_radial=  2 for radial functions.
  Species H                   : Default cutoff onset for free atom density etc. : 0.40000000E+01 AA.
  Species H                   : Basic radial grid will be enhanced according to radial_multiplier =   2, to contain    49 grid points.
 
  Reading configuration options for species C                   .
  | Found nuclear charge :   6.0000
  | Found atomic mass :    12.0107000000000      amu
  | Found l_max for Hartree potential  :   6
  | Found cutoff potl. onset [A], width [A], scale factor :    4.00000    2.00000    1.00000
  | Threshold for basis-dependent cutoff potential is   0.100000E-03
  | Found data for basic radial integration grid :    34 points, outermost radius =    7.000 A
  | Found multiplier for basic radial grid :   2
  | Found angular grid specification: user-specified.
  | Specified grid contains     6 separate shells.
  | Check grid settings after all constraints further below.
  | Found free-atom valence shell :  2 s   2.000
  | Found free-atom valence shell :  2 p   2.000
  | No ionic wave fns used. Skipping ion_occ.
  | No ionic wave fns used. Skipping ion_occ.
  | Found hydrogenic basis function :  2 p   1.700
  | Found hydrogenic basis function :  3 d   6.000
  | Found hydrogenic basis function :  2 s   4.900
  | Found hydrogenic basis function :  4 f   9.800
  | Found hydrogenic basis function :  3 p   5.200
  | Found hydrogenic basis function :  3 s   4.300
  | Found hydrogenic basis function :  5 g  14.400
  | Found hydrogenic basis function :  3 d   6.200
  Species C                   : Missing cutoff potential type.
  Defaulting to exp(1/x)/(1-x)^2 type cutoff potential.
  Species C : No 'logarithmic' tag. Using default grid for free atom:
  | Default logarithmic grid data [bohr] : 0.1000E-03 0.1000E+03 0.1012E+01
  Species C : On-site basis accuracy parameter (for Gram-Schmidt orthonormalisation) not specified.
  Using default value basis_acc =  0.1000000E-03.
  Species C                   : Using default innermost maximum threshold i_radial=  2 for radial functions.
  Species C                   : Default cutoff onset for free atom density etc. : 0.40000000E+01 AA.
  Species C                   : Basic radial grid will be enhanced according to radial_multiplier =   2, to contain    69 grid points.
 
  Finished reading input file 'control.in'. Consistency checks are next.
 
  MPI_IN_PLACE appears to work with this MPI implementation.
  | Keeping use_mpi_in_place .true. (see manual).
  Target number of points in a grid batch is not set. Defaulting to  100
  Method for grid partitioning is not set. Defaulting to parallel hash+maxmin partitioning.
  Batch size limit is not set. Defaulting to    200
  By default, will store active basis functions for each batch.
  If in need of memory, prune_basis_once .false. can be used to disable this option.
  communication_type for Hartree potential was not specified.
  Defaulting to calc_hartree .
  Pulay mixer: Number of initial linear mixing iterations not set.
  Defaulting to    0 iterations.
  Work space size for distributed Hartree potential not set.
  Defaulting to   0.200000E+03 MB.
  Algorithm-dependent basis array size parameters:
  | n_max_pulay                         :        5
  Presetting      1001 iterations before the initial mixing cycle
  is restarted anyway using the sc_init_iter criterion / keyword.
  Presetting a factor      1.000 between actual scf density residual
  and density convergence criterion sc_accuracy_rho below which sc_init_iter
  takes no effect.
  Calculation of forces was not defined in control.in. No forces will be calculated.
  Geometry relaxation not requested: no relaxation will be performed.
  No accuracy limit for integral partition fn. given. Defaulting to  0.1000E-14.
  No threshold value for u(r) in integrations given. Defaulting to  0.1000E-05.
  No accuracy for occupation numbers given. Defaulting to  0.1000E-12.
  No threshold value for occupation numbers given. Defaulting to  0.0000E+00.
  No accuracy for fermi level given. Defaulting to  0.1000E-19.
  Maximum # of iterations to find E_F not set. Defaulting to  200.
  Will not use alltoall communication since running on < 1024 CPUs.
  partition_type (choice of integration weights) for integrals was not specified.
  | Using a version of the partition function of Stratmann and coworkers ('stratmann_sparse').
  | At each grid point, the set of atoms used to build the partition table is smoothly restricted to
  | only those atoms whose free-atom density would be non-zero at that grid point.
  Partitioning for Hartree potential was not defined. Using partition_type for integrals.
  | Adjusted default value of keyword multip_moments_threshold to:       0.10000000E-11
  | This value may affect high angular momentum components of the Hartree potential in periodic systems.
  No q(lm)/r^(l+1) cutoff set for long-range Hartree potential.
  | Using default value of  0.100000E-09 .
  | Verify using the multipole_threshold keyword.
  Defaulting to new monopole extrapolation.
  Density update method: automatic selection selected.
 * Warning: use_local_index and/or load_balancing needs packed_matrix_format = index
 * Changing the default setting to packed_matrix_format = index
------------------------------------------------------------


------------------------------------------------------------
          Reading geometry description geometry.in.
------------------------------------------------------------
  Input structure read successfully.
  The structure contains       46 atoms,  and a total of        206.000 electrons.

  Input geometry:
  | No unit cell requested.
  | Atomic structure:
  |       Atom                x [A]            y [A]            z [A]
  |    1: Species H            11.46964500       12.40636800       49.20402000
  |    2: Species C            11.16955000       11.35938000       49.13782100
  |    3: Species C            10.25258000       10.85434900       50.01420800
  |    4: Species C            11.76034000       10.54358500       48.11098200
  |    5: Species C             9.83052000        9.48959500       49.94838500
  |    6: Species H             9.80692600       11.49295800       50.77925900
  |    7: Species C            11.37259000        9.17325400       48.03575600
  |    8: Species C            12.69611000       11.04148600       47.19322100
  |    9: Species C             8.87219000        8.93801600       50.82853300
  |   10: Species C            10.40204000        8.65308900       48.95351700
  |   11: Species C            11.94129000        8.33271200       47.05217200
  |   12: Species C            13.27421000       10.22271300       46.21904100
  |   13: Species H            12.98816800       12.09028000       47.24588000
  |   14: Species C             8.49055000        7.62991200       50.74390300
  |   15: Species H             8.42216500        9.58491000       51.58230000
  |   16: Species C            10.02181000        7.30038200       48.80118400
  |   17: Species C            11.55871000        6.95125300       46.98070700
  |   18: Species C            12.89821000        8.85390200       46.14569500
  |   19: Species C            14.24288000       10.71450500       45.26742800
  |   20: Species H             7.75199200        7.23012900       51.43711300
  |   21: Species C             9.04938000        6.76307900       49.77912600
  |   22: Species C            10.60179000        6.43006400       47.88718400
  |   23: Species C            12.12741000        6.11071200       45.99712300
  |   24: Species C            13.47819000        7.98358400       45.23169600
  |   25: Species C            14.79983000        9.90237000       44.34778600
  |   26: Species H            14.52013300       11.76729100       45.31538500
  |   27: Species C             8.70017000        5.38159600       49.68509300
  |   28: Species C            10.22579000        5.06125300       47.81383800
  |   29: Species C            11.73966000        4.74038100       45.92189700
  |   30: Species C            13.09796000        6.63087700       45.07936200
  |   31: Species C            14.45062000        8.52088600       44.25375400
  |   32: Species H            15.53721300       10.29323700       43.64479700
  |   33: Species H             7.96278700        4.99072900       50.38808300
  |   34: Species C             9.25712000        4.56946100       48.76545100
  |   35: Species C            10.80389000        4.24248000       46.83965800
  |   36: Species C            12.33045000        3.92458600       44.89505800
  |   37: Species C            13.66948000        5.79437100       44.08449400
  |   38: Species C            15.00945000        7.65405400       43.28897600
  |   39: Species H             8.97986700        3.51667500       48.71749400
  |   40: Species H            10.51183200        3.19368600       46.78699900
  |   41: Species H            12.03035500        2.87759800       44.82885900
  |   42: Species C            13.24742000        4.42961700       44.01867100
  |   43: Species C            14.62781000        6.34595000       43.20434700
  |   44: Species H            15.74800800        8.05383700       42.59576600
  |   45: Species H            13.69307400        3.79100800       43.25362000
  |   46: Species H            15.07783500        5.69905600       42.45057900
  |

  | The smallest distance between any two atoms is         1.08896027 AA.
  |
  | The first atom of this pair is atom number                     14 .
  | The second atom of this pair is atom number                    20 .

  Number of empty states per atom not set in control.in - providing a guess from actual geometry.
  | Total number of empty states used during s.c.f. cycle:      117
  If you use a very high smearing, use empty_states (per atom!) in control.in to increase this value.

  Structure-dependent array size parameters: 
  | Maximum number of distinct radial functions  :       18
  | Maximum number of basis functions            :     1458
  | Number of Kohn-Sham states (occupied + empty):      220
------------------------------------------------------------

------------------------------------------------------------
          Preparing all fixed parts of the calculation.
------------------------------------------------------------
  Determining machine precision:
    2.225073858507201E-308
  Setting up grids for atomic and cluster calculations.

  Creating wave function, potential, and density for free atoms.

  Species: H

  List of occupied orbitals and eigenvalues:
    n    l              occ      energy [Ha]    energy [eV]
    1    0           1.0000        -0.238386        -6.4868


  Species: C

  List of occupied orbitals and eigenvalues:
    n    l              occ      energy [Ha]    energy [eV]
    1    0           2.0000       -10.049212      -273.4530
    2    0           2.0000        -0.504761       -13.7352
    2    1           2.0000        -0.193631        -5.2690

  Creating fixed part of basis set: Ionic, confined, hydrogenic.
 
  H                    hydrogenic:
 
  List of hydrogenic basis orbitals: 
    n    l      effective z      eigenvalue [eV]  inner max. [A]     outer max. [A]     outer radius [A]   
    2    0         2.100000       -14.9965           0.193243           1.317208           5.373006
    2    1         3.500000       -41.6672           0.602369           0.602369           4.056063
    1    0         0.850000        -9.8292           0.624871           0.624871           5.373006
    2    1         3.700000       -46.5653           0.573622           0.573622           3.910002
    2    0         1.200000        -4.5995           0.334980           2.228188           5.505995
    3    2         7.000000       -74.0753           0.680699           0.680699           3.769201
 
 
  C                    hydrogenic:
 
  List of hydrogenic basis orbitals: 
    n    l      effective z      eigenvalue [eV]  inner max. [A]     outer max. [A]     outer radius [A]   
    2    1         1.700000        -9.8152           1.245706           1.245706           5.401630
    3    2         6.000000       -54.4226           0.792453           0.792453           4.178599
    2    0         4.900000       -81.6681           0.082559           0.562749           3.353238
    4    3         9.800000       -81.6681           0.863254           0.863254           4.028125
    3    1         5.200000       -40.8774           0.305389           1.215618           4.898362
    3    0         4.300000       -27.9508           0.091041           1.610311           5.401630
    5    4        14.400000      -112.8510           0.917666           0.917666           3.883070
    3    2         6.200000       -58.1113           0.763917           0.763917           4.077671
 

  Adding cutoff potential to free-atom effective potential.
  Creating atomic-like basis functions for current effective potential.

  Species H                   :

  List of atomic basis orbitals and eigenvalues:
    n    l      energy [Ha]    energy [eV]    outer radius [A]
    1    0        -0.238386        -6.4868       5.373006


  Species C                   :

  List of atomic basis orbitals and eigenvalues:
    n    l      energy [Ha]    energy [eV]    outer radius [A]
    1    0       -10.049212      -273.4530       1.934409
    2    0        -0.504761       -13.7352       5.271162
    2    1        -0.193631        -5.2690       5.401630

  Assembling full basis from fixed parts.
  | Species H :   atomic orbital   1 s accepted.
  | Species H :    hydro orbital   2 s accepted.
  | Species H :    hydro orbital   1 s accepted.
  | Species H :    hydro orbital   2 s accepted.
  | Species H :    hydro orbital   2 p accepted.
  | Species H :    hydro orbital   2 p accepted.
  | Species H :    hydro orbital   3 d accepted.
  | Species C :   atomic orbital   1 s accepted.
  | Species C :    hydro orbital   2 s accepted.
  | Species C :   atomic orbital   2 s accepted.
  | Species C :    hydro orbital   3 s accepted.
  | Species C :    hydro orbital   3 p accepted.
  | Species C :   atomic orbital   2 p accepted.
  | Species C :    hydro orbital   2 p accepted.
  | Species C :    hydro orbital   3 d accepted.
  | Species C :    hydro orbital   3 d accepted.
  | Species C :    hydro orbital   4 f accepted.
  | Species C :    hydro orbital   5 g accepted.
 
  Basis size parameters after reduction:
  | Total number of radial functions:       18
  | Total number of basis functions :     1458
 
  Per-task memory consumption for arrays in subroutine allocate_ext:
  |           4.447296MB.
  Testing on-site integration grid accuracy.
  |  Species  Function  <phi|h_atom|phi> (log., in eV)  <phi|h_atom|phi> (rad., in eV)
           1        1                 -6.4870767962                 -6.4871688290
           1        2                 13.5032046589                 13.5028982997
           1        3                 32.8195184817                 32.8119941656
           1        4                 33.8513856511                 33.7670005767 ***
           1        5                 28.8544614965                 28.8544615203
           1        6                 59.6326952547                 59.6327656460
           1        7                 60.2719308513                 60.2719305949
           2        8               -273.4529726040               -273.4529710464
           2        9                -10.7721037319                -10.7721022101
           2       10                 17.6044132601                 17.6044162063
           2       11                 53.7706460658                 53.7706913770
           2       12                 15.0973290362                 15.0973256030
           2       13                  3.8545134692                  3.8545724687
           2       14                 12.1156992592                 12.1182024431
           2       15                 29.4352039302                 29.4352041816
           2       16                 54.8741144708                 54.8740268729
           2       17                 59.3556032049                 59.3556031382
           2       18                 93.4551837154                 93.4551838009
 * Note: Onsite integrals marked "***" above are less accurate than
 * onsite_accuracy_threshold =    0.03000 eV. Usually, this is harmless.
 * When in doubt, tighten the "radial" and/or "radial_multiplier" flags to check.

  Preparing densities etc. for the partition functions (integrals / Hartree potential).

  Preparations completed.
  max(cpu_time)          :      0.202 s.
  Wall clock time (cpu1) :      0.187 s.
------------------------------------------------------------

------------------------------------------------------------
          Begin self-consistency loop: Initialization.

          Date     :  20210620, Time     :  173352.468
------------------------------------------------------------

  Initializing index lists of integration centers etc. from given atomic structure:
  | Number of centers in hartree potential         :        46
  | Number of centers in hartree multipole         :        46
  | Number of centers in electron density summation:        46
  | Number of centers in basis integrals           :        46
  | Number of centers in integrals                 :        46
  | Number of centers in hamiltonian               :        46
  * Using 56 tasks for Scalapack Eigenvalue solver.
  Detailed listing of tasks and assigned k-points:
  (for non-periodic systems, the "k-point" denotes an internal label only)
   Task     0 k-point     1 on d001
   Task     1 k-point     1 on d001
   Task     2 k-point     1 on d001
   Task     3 k-point     1 on d001
   Task     4 k-point     1 on d001
   Task     5 k-point     1 on d001
   Task     6 k-point     1 on d001
   Task     7 k-point     1 on d001
   Task     8 k-point     1 on d001
   Task     9 k-point     1 on d001
   Task    10 k-point     1 on d001
   Task    11 k-point     1 on d001
   Task    12 k-point     1 on d001
   Task    13 k-point     1 on d001
   Task    14 k-point     1 on d001
   Task    15 k-point     1 on d001
   Task    16 k-point     1 on d001
   Task    17 k-point     1 on d001
   Task    18 k-point     1 on d001
   Task    19 k-point     1 on d001
   Task    20 k-point     1 on d001
   Task    21 k-point     1 on d001
   Task    22 k-point     1 on d001
   Task    23 k-point     1 on d001
   Task    24 k-point     1 on d001
   Task    25 k-point     1 on d001
   Task    26 k-point     1 on d001
   Task    27 k-point     1 on d001
   Task    28 k-point     1 on d001
   Task    29 k-point     1 on d001
   Task    30 k-point     1 on d001
   Task    31 k-point     1 on d001
   Task    32 k-point     1 on d001
   Task    33 k-point     1 on d001
   Task    34 k-point     1 on d001
   Task    35 k-point     1 on d001
   Task    36 k-point     1 on d001
   Task    37 k-point     1 on d001
   Task    38 k-point     1 on d001
   Task    39 k-point     1 on d001
   Task    40 k-point     1 on d001
   Task    41 k-point     1 on d001
   Task    42 k-point     1 on d001
   Task    43 k-point     1 on d001
   Task    44 k-point     1 on d001
   Task    45 k-point     1 on d001
   Task    46 k-point     1 on d001
   Task    47 k-point     1 on d001
   Task    48 k-point     1 on d001
   Task    49 k-point     1 on d001
   Task    50 k-point     1 on d001
   Task    51 k-point     1 on d001
   Task    52 k-point     1 on d001
   Task    53 k-point     1 on d001
   Task    54 k-point     1 on d001
   Task    55 k-point     1 on d001
  Tasks:    56 split into      8 X      7 BLACS grid
  Calculating block size based on n_basis =         1458 max_nprow =            8 max_npcol =            7
  ScaLAPACK block size set to:           16
  Allocating        0.323 MB for ovlp
  Allocating        0.323 MB for ham
  Allocating        0.323 MB for eigenvec
  Required Scalapack workspace - INTEGER:            1 REAL:             1
  Partitioning the integration grid into batches with parallel hashing+maxmin method.
  | Number of batches:     6867
  | Maximal batch size:     200
  | Minimal batch size:       1
  | Average batch size:     113.703
  | Standard deviation of batch sizes:      33.264

  Integration load balanced across     56 MPI tasks.
  Work distribution over tasks is as follows:
  Task      0 has      14029 integration points.
  Task      1 has      14026 integration points.
  Task      2 has      13927 integration points.
  Task      3 has      13977 integration points.
  Task      4 has      13962 integration points.
  Task      5 has      13984 integration points.
  Task      6 has      13923 integration points.
  Task      7 has      13939 integration points.
  Task      8 has      13962 integration points.
  Task      9 has      13873 integration points.
  Task     10 has      13931 integration points.
  Task     11 has      13921 integration points.
  Task     12 has      14000 integration points.
  Task     13 has      13810 integration points.
  Task     14 has      14034 integration points.
  Task     15 has      13956 integration points.
  Task     16 has      13939 integration points.
  Task     17 has      14043 integration points.
  Task     18 has      13872 integration points.
  Task     19 has      13957 integration points.
  Task     20 has      13860 integration points.
  Task     21 has      14026 integration points.
  Task     22 has      13929 integration points.
  Task     23 has      13841 integration points.
  Task     24 has      14099 integration points.
  Task     25 has      13851 integration points.
  Task     26 has      13950 integration points.
  Task     27 has      13796 integration points.
  Task     28 has      13969 integration points.
  Task     29 has      13961 integration points.
  Task     30 has      13910 integration points.
  Task     31 has      14000 integration points.
  Task     32 has      13952 integration points.
  Task     33 has      13965 integration points.
  Task     34 has      13869 integration points.
  Task     35 has      14027 integration points.
  Task     36 has      13989 integration points.
  Task     37 has      13812 integration points.
  Task     38 has      13956 integration points.
  Task     39 has      13951 integration points.
  Task     40 has      13962 integration points.
  Task     41 has      13874 integration points.
  Task     42 has      13989 integration points.
  Task     43 has      14076 integration points.
  Task     44 has      13885 integration points.
  Task     45 has      14061 integration points.
  Task     46 has      13872 integration points.
  Task     47 has      13954 integration points.
  Task     48 has      13940 integration points.
  Task     49 has      14020 integration points.
  Task     50 has      13887 integration points.
  Task     51 has      13885 integration points.
  Task     52 has      13992 integration points.
  Task     53 has      13908 integration points.
  Task     54 has      13883 integration points.
  Task     55 has      13830 integration points.
  Initializing partition tables, free-atom densities, potentials, etc. across the integration grid (initialize_grid_storage).
  | initialize_grid_storage: Actual outermost partition radius vs. multipole_radius_free
  | (-- VB: in principle, multipole_radius_free should be larger, hence this output)
  | Species        1: Confinement radius =              6.000000000000000 AA, multipole_radius_free =              6.071692442739658 AA.
  | Species        1: outer_partition_radius set to              6.071692442739658 AA .
  | Species        2: Confinement radius =              6.000000000000000 AA, multipole_radius_free =              6.029870734432609 AA.
  | Species        2: outer_partition_radius set to              6.029870734432609 AA .
  | The sparse table of interatomic distances needs     25.0280 kbyte instead of    16.9280 kbyte of memory.
  | Using the partition_type stratmann_smoother will reduce your memory usage.
  | Net number of integration points:   780796
  | of which are non-zero points    :   626940
  Renormalizing the initial density to the exact electron count on the 3D integration grid.
  | Initial density: Formal number of electrons (from input files) :     206.0000000000
  | Integrated number of electrons on 3D grid     :     206.0007203083
  | Charge integration error                      :       0.0007203083
  | Normalization factor for density and gradient :       0.9999965034
  Obtaining max. number of non-zero basis functions in each batch (get_n_compute_maxes).
  | Maximal number of non-zero basis functions:     1069
  Selecting the method for density update.
  Loop over occupied states selected for charge density update.
  Hamiltonian matrix size:
  | Size of matrix non-packed:               1063611
  | Size of matrix packed:          982130
  Allocating        2.566 MB for KS_eigenvector
  use_local_index: Max. local matrix size =       934705
  Task:     0 matrix size:     198455
  Task:     1 matrix size:     512565
  Task:     2 matrix size:     479599
  Task:     3 matrix size:     297909
  Task:     4 matrix size:     710037
  Task:     5 matrix size:     450085
  Task:     6 matrix size:     724582
  Task:     7 matrix size:     152559
  Task:     8 matrix size:     291806
  Task:     9 matrix size:     191755
  Task:    10 matrix size:     395254
  Task:    11 matrix size:     301873
  Task:    12 matrix size:     588960
  Task:    13 matrix size:     469960
  Task:    14 matrix size:     606675
  Task:    15 matrix size:     934705
  Task:    16 matrix size:     688019
  Task:    17 matrix size:     599145
  Task:    18 matrix size:     408843
  Task:    19 matrix size:     676912
  Task:    20 matrix size:     512423
  Task:    21 matrix size:     188724
  Task:    22 matrix size:     533231
  Task:    23 matrix size:     395965
  Task:    24 matrix size:     266653
  Task:    25 matrix size:     160392
  Task:    26 matrix size:     349680
  Task:    27 matrix size:     199767
  Task:    28 matrix size:     278717
  Task:    29 matrix size:     218130
  Task:    30 matrix size:     163792
  Task:    31 matrix size:     432304
  Task:    32 matrix size:     526163
  Task:    33 matrix size:     183207
  Task:    34 matrix size:     298718
  Task:    35 matrix size:     518526
  Task:    36 matrix size:     355706
  Task:    37 matrix size:     542537
  Task:    38 matrix size:     732866
  Task:    39 matrix size:     914128
  Task:    40 matrix size:     523828
  Task:    41 matrix size:     754694
  Task:    42 matrix size:     587916
  Task:    43 matrix size:     344029
  Task:    44 matrix size:     498163
  Task:    45 matrix size:     236193
  Task:    46 matrix size:     328016
  Task:    47 matrix size:     163305
  Task:    48 matrix size:     233483
  Task:    49 matrix size:     804844
  Task:    50 matrix size:     480024
  Task:    51 matrix size:     402375
  Task:    52 matrix size:     681807
  Task:    53 matrix size:     490307
  Task:    54 matrix size:     280570
  Task:    55 matrix size:     223386
  Integrating Hamiltonian matrix: batch-based integration.
  Time summed over all CPUs for integration: real work      151.900 s, elapsed      304.712 s
  Time get_set_sparse_local_matrix_scalapack:     0.016501 s
  Start compute_balanced_batch_distribution
  Done load balancing, time needed:      0.008 s
  Integrating overlap matrix with loadbalancing
  Time summed over all CPUs for integration: real work       42.177 s, elapsed       49.842 s
  Time get_set_full_local_matrix_scalapack:     0.019114 s

  Updating Kohn-Sham eigenvalues and eigenvectors using ELSI and the ELPA eigensolver.
  Overlap matrix is not singular
  | Lowest and highest eigenvalues :  0.12E+02,  0.85E-04
  Finished singularity check of overlap matrix
  | Time :     0.088 s
  Finished Cholesky decomposition
  | Time :     0.019 s
  Finished transformation to standard eigenproblem
  | Time :     0.014 s
  Starting ELPA eigensolver
  Finished solving standard eigenproblem
  | Time :     0.088 s
  Finished back-transformation of eigenvectors
  | Time :     0.004 s

  Obtaining occupation numbers and chemical potential using ELSI.
  | Chemical potential (Fermi level):    -8.16017338 eV
  Writing Kohn-Sham eigenvalues.

  State    Occupation    Eigenvalue [Ha]    Eigenvalue [eV]
      1       2.00000         -10.172161         -276.79858
      2       2.00000         -10.172161         -276.79858
      3       2.00000         -10.171624         -276.78398
      4       2.00000         -10.171624         -276.78398
      5       2.00000         -10.171074         -276.76900
      6       2.00000         -10.171074         -276.76900
      7       2.00000         -10.170701         -276.75885
      8       2.00000         -10.170701         -276.75884
      9       2.00000         -10.170339         -276.74900
     10       2.00000         -10.170339         -276.74900
     11       2.00000         -10.168808         -276.70735
     12       2.00000         -10.168808         -276.70735
     13       2.00000         -10.167915         -276.68306
     14       2.00000         -10.167915         -276.68305
     15       2.00000         -10.167692         -276.67697
     16       2.00000         -10.167692         -276.67697
     17       2.00000         -10.165665         -276.62182
     18       2.00000         -10.165446         -276.61585
     19       2.00000         -10.165445         -276.61583
     20       2.00000         -10.165411         -276.61490
     21       2.00000         -10.165377         -276.61397
     22       2.00000         -10.165360         -276.61351
     23       2.00000         -10.165038         -276.60476
     24       2.00000         -10.165037         -276.60473
     25       2.00000         -10.164835         -276.59923
     26       2.00000         -10.164833         -276.59917
     27       2.00000         -10.164422         -276.58800
     28       2.00000         -10.164417         -276.58786
     29       2.00000         -10.164207         -276.58214
     30       2.00000         -10.164207         -276.58214
     31       2.00000         -10.158467         -276.42595
     32       2.00000         -10.158467         -276.42595
     33       2.00000          -1.030909          -28.05247
     34       2.00000          -1.007949          -27.42769
     35       2.00000          -0.999504          -27.19789
     36       2.00000          -0.977314          -26.59408
     37       2.00000          -0.971785          -26.44363
     38       2.00000          -0.949060          -25.82523
     39       2.00000          -0.941878          -25.62981
     40       2.00000          -0.933417          -25.39956
     41       2.00000          -0.920922          -25.05957
     42       2.00000          -0.903019          -24.57239
     43       2.00000          -0.886657          -24.12717
     44       2.00000          -0.882764          -24.02123
     45       2.00000          -0.870031          -23.67474
     46       2.00000          -0.862806          -23.47814
     47       2.00000          -0.852488          -23.19739
     48       2.00000          -0.838358          -22.81288
     49       2.00000          -0.786311          -21.39662
     50       2.00000          -0.782949          -21.30512
     51       2.00000          -0.778537          -21.18507
     52       2.00000          -0.775153          -21.09299
     53       2.00000          -0.772761          -21.02790
     54       2.00000          -0.764791          -20.81101
     55       2.00000          -0.718807          -19.55974
     56       2.00000          -0.711796          -19.36894
     57       2.00000          -0.704396          -19.16758
     58       2.00000          -0.688600          -18.73777
     59       2.00000          -0.687024          -18.69488
     60       2.00000          -0.685314          -18.64834
     61       2.00000          -0.680002          -18.50379
     62       2.00000          -0.649430          -17.67189
     63       2.00000          -0.638823          -17.38327
     64       2.00000          -0.637865          -17.35719
     65       2.00000          -0.631145          -17.17432
     66       2.00000          -0.629115          -17.11908
     67       2.00000          -0.622652          -16.94322
     68       2.00000          -0.603273          -16.41589
     69       2.00000          -0.597650          -16.26288
     70       2.00000          -0.592944          -16.13483
     71       2.00000          -0.587179          -15.97794
     72       2.00000          -0.578334          -15.73728
     73       2.00000          -0.575036          -15.64752
     74       2.00000          -0.569846          -15.50630
     75       2.00000          -0.564463          -15.35982
     76       2.00000          -0.563580          -15.33580
     77       2.00000          -0.556363          -15.13942
     78       2.00000          -0.552571          -15.03621
     79       2.00000          -0.552023          -15.02132
     80       2.00000          -0.538199          -14.64515
     81       2.00000          -0.537259          -14.61955
     82       2.00000          -0.531565          -14.46463
     83       2.00000          -0.526339          -14.32242
     84       2.00000          -0.516913          -14.06591
     85       2.00000          -0.513856          -13.98273
     86       2.00000          -0.509501          -13.86422
     87       2.00000          -0.501551          -13.64789
     88       2.00000          -0.492720          -13.40760
     89       2.00000          -0.490971          -13.35999
     90       2.00000          -0.485836          -13.22027
     91       2.00000          -0.481287          -13.09648
     92       2.00000          -0.470483          -12.80249
     93       2.00000          -0.464034          -12.62700
     94       2.00000          -0.451236          -12.27875
     95       2.00000          -0.444785          -12.10322
     96       2.00000          -0.432086          -11.75766
     97       2.00000          -0.407058          -11.07661
     98       2.00000          -0.404318          -11.00205
     99       2.00000          -0.401481          -10.92484
    100       2.00000          -0.387891          -10.55506
    101       2.00000          -0.377093          -10.26123
    102       2.00000          -0.362251           -9.85734
    103       2.00000          -0.340250           -9.25868
    104       0.00000          -0.269688           -7.33859
    105       0.00000          -0.248497           -6.76194
    106       0.00000          -0.231617           -6.30262
    107       0.00000          -0.222873           -6.06469
    108       0.00000          -0.208104           -5.66280
    109       0.00000          -0.205365           -5.58828
    110       0.00000          -0.202364           -5.50660
    111       0.00000          -0.166535           -4.53166
    112       0.00000          -0.150396           -4.09248
    113       0.00000          -0.141693           -3.85567
    114       0.00000          -0.126336           -3.43778
    115       0.00000          -0.085492           -2.32636
    116       0.00000          -0.080308           -2.18528
    117       0.00000          -0.073152           -1.99057
    118       0.00000          -0.065447           -1.78092
    119       0.00000          -0.061583           -1.67575
    120       0.00000          -0.049423           -1.34486
    121       0.00000          -0.046956           -1.27775
    122       0.00000          -0.038021           -1.03460
    123       0.00000          -0.036513           -0.99356
    124       0.00000          -0.035467           -0.96510
    125       0.00000          -0.026551           -0.72249
    126       0.00000          -0.025283           -0.68799
    127       0.00000          -0.019230           -0.52328
    128       0.00000          -0.016131           -0.43896
    129       0.00000          -0.014301           -0.38914
    130       0.00000          -0.014091           -0.38344
    131       0.00000          -0.011984           -0.32609
    132       0.00000          -0.008845           -0.24068
    133       0.00000          -0.003960           -0.10774
    134       0.00000           0.000518            0.01410
    135       0.00000           0.005172            0.14075
    136       0.00000           0.008882            0.24169
    137       0.00000           0.019949            0.54283
    138       0.00000           0.022561            0.61392
    139       0.00000           0.022744            0.61890
    140       0.00000           0.027205            0.74027
    141       0.00000           0.031363            0.85342
    142       0.00000           0.037308            1.01520
    143       0.00000           0.039692            1.08008
    144       0.00000           0.041632            1.13286
    145       0.00000           0.044166            1.20181
    146       0.00000           0.045449            1.23673
    147       0.00000           0.046252            1.25857
    148       0.00000           0.048254            1.31305
    149       0.00000           0.049613            1.35003
    150       0.00000           0.052292            1.42293
    151       0.00000           0.056219            1.52979
    152       0.00000           0.057071            1.55299
    153       0.00000           0.060387            1.64321
    154       0.00000           0.062513            1.70108
    155       0.00000           0.063269            1.72164
    156       0.00000           0.064701            1.76059
    157       0.00000           0.080299            2.18506
    158       0.00000           0.081095            2.20671
    159       0.00000           0.082858            2.25468
    160       0.00000           0.083364            2.26846
    161       0.00000           0.091886            2.50035
    162       0.00000           0.093686            2.54933
    163       0.00000           0.094457            2.57030
    164       0.00000           0.095184            2.59010
    165       0.00000           0.103245            2.80944
    166       0.00000           0.105365            2.86712
    167       0.00000           0.108658            2.95673
    168       0.00000           0.112898            3.07210
    169       0.00000           0.113339            3.08411
    170       0.00000           0.117183            3.18872
    171       0.00000           0.119319            3.24683
    172       0.00000           0.120254            3.27227
    173       0.00000           0.121953            3.31852
    174       0.00000           0.126616            3.44541
    175       0.00000           0.132467            3.60460
    176       0.00000           0.137873            3.75171
    177       0.00000           0.142097            3.86665
    178       0.00000           0.144570            3.93396
    179       0.00000           0.145222            3.95168
    180       0.00000           0.148716            4.04678
    181       0.00000           0.151403            4.11988
    182       0.00000           0.152399            4.14700
    183       0.00000           0.154508            4.20437
    184       0.00000           0.155214            4.22358
    185       0.00000           0.160476            4.36677
    186       0.00000           0.164497            4.47619
    187       0.00000           0.169993            4.62576
    188       0.00000           0.170687            4.64462
    189       0.00000           0.172786            4.70176
    190       0.00000           0.174197            4.74013
    191       0.00000           0.177753            4.83691
    192       0.00000           0.178498            4.85719
    193       0.00000           0.183286            4.98748
    194       0.00000           0.183382            4.99009
    195       0.00000           0.185406            5.04516
    196       0.00000           0.186964            5.08756
    197       0.00000           0.197918            5.38562
    198       0.00000           0.201846            5.49251
    199       0.00000           0.203168            5.52847
    200       0.00000           0.206114            5.60864
    201       0.00000           0.211551            5.75661
    202       0.00000           0.213988            5.82290
    203       0.00000           0.217351            5.91442
    204       0.00000           0.218810            5.95412
    205       0.00000           0.223373            6.07829
    206       0.00000           0.226509            6.16361
    207       0.00000           0.226789            6.17125
    208       0.00000           0.231087            6.28821
    209       0.00000           0.231491            6.29918
    210       0.00000           0.234433            6.37924
    211       0.00000           0.236437            6.43377
    212       0.00000           0.238503            6.48999
    213       0.00000           0.243072            6.61432
    214       0.00000           0.251062            6.83174
    215       0.00000           0.252898            6.88170
    216       0.00000           0.258413            7.03178
    217       0.00000           0.261326            7.11105
    218       0.00000           0.264961            7.20995
    219       0.00000           0.268050            7.29401
    220       0.00000           0.271243            7.38089

  Highest occupied state (VBM) at     -9.25867811 eV
  | Occupation number:      2.00000000

  Lowest unoccupied state (CBM) at    -7.33859350 eV
  | Occupation number:      0.00000000

  Overall HOMO-LUMO gap:      1.92008461 eV.
  Calculating total energy contributions from superposition of free atom densities.

  Total energy components:
  | Sum of eigenvalues            :        -742.96763087 Ha      -20217.17787461 eV
  | XC energy correction          :        -174.93564939 Ha       -4760.24121836 eV
  | XC potential correction       :         224.70479333 Ha        6114.52853028 eV
  | Free-atom electrostatic energy:        -535.64476241 Ha      -14575.63558546 eV
  | Hartree energy correction     :           0.00000000 Ha           0.00000000 eV
  | Entropy correction            :           0.00000000 Ha           0.00000000 eV
  | ---------------------------
  | Total energy                  :       -1228.84324935 Ha      -33438.52614816 eV
  | Total energy, T -> 0          :       -1228.84324935 Ha      -33438.52614816 eV  <-- do not rely on this value for anything but (periodic) metals
  | Electronic free energy        :       -1228.84324935 Ha      -33438.52614816 eV

  Derived energy quantities:
  | Kinetic energy                :        1218.92163607 Ha       33168.54531440 eV
  | Electrostatic energy          :       -2272.82923602 Ha      -61846.83024420 eV
  | Energy correction for multipole
  | error in Hartree potential    :           0.00000000 Ha           0.00000000 eV
  | Sum of eigenvalues per atom                           :        -439.50386684 eV
  | Total energy (T->0) per atom                          :        -726.92448148 eV  <-- do not rely on this value for anything but (periodic) metals
  | Electronic free energy per atom                       :        -726.92448148 eV
  Initialize hartree_potential_storage
  Max. number of atoms included in rho_multipole:           46

  End scf initialization - timings             :  max(cpu_time)    wall_clock(cpu1)
  | Time for scf. initialization               :        8.245 s           8.304 s
  | Boundary condition initialization          :        0.001 s           0.003 s
  | Integration                                :        6.394 s           6.399 s
  | Solution of K.-S. eqns.                    :        0.229 s           0.247 s
  | Grid partitioning                          :        0.700 s           0.704 s
  | Preloading free-atom quantities on grid    :        0.014 s           0.017 s
  | Free-atom superposition energy             :        0.063 s           0.063 s
  | Total energy evaluation                    :        0.001 s           0.004 s

  Partial memory accounting:
  | Current value for overall tracked memory usage on task 0  :           4.328 MB
  | Peak value for overall tracked memory usage on task 0     :          30.477 MB after allocating zora_vector2
  | Largest tracked array allocation on task 0 so far         :           9.142 MB  when allocating hamiltonian_shell
  Note:  These values currently only include a subset of arrays which are explicitly tracked.
  The "true" memory usage will be greater.
------------------------------------------------------------

------------------------------------------------------------
          Begin self-consistency iteration #    1

  Date     :  20210620, Time     :  173400.774
------------------------------------------------------------
  Evaluating new KS density.
  Integration grid: deviation in total charge (<rho> - N_e) =   8.526513E-14
  Pulay mixing of updated and previous charge densities.

  Evaluating partitioned Hartree potential by multipole expansion.
  | Analytical far-field extrapolation by fixed multipoles:
  | Hartree multipole sum: apparent total charge =   0.711589E-03
  Summing up the Hartree potential with load balancing.
  Time summed over all CPUs for potential: real work       23.515 s, elapsed       37.018 s
  | RMS charge density error from multipole expansion :   0.136712E-01

  Start compute_balanced_batch_distribution
  Done load balancing, time needed:      0.006 s
  Integrating Hamiltonian matrix: batch-based integration with load balancing
  Time summed over all CPUs for integration: real work      167.374 s, elapsed      189.023 s
  Time get_set_full_local_matrix_scalapack:     0.019094 s
  Start compute_balanced_batch_distribution
  Done load balancing, time needed:      0.006 s

  Updating Kohn-Sham eigenvalues and eigenvectors using ELSI and the ELPA eigensolver.
  Finished transformation to standard eigenproblem
  | Time :     0.016 s
  Starting ELPA eigensolver
  Finished solving standard eigenproblem
  | Time :     0.085 s
  Finished back-transformation of eigenvectors
  | Time :     0.004 s

  Obtaining occupation numbers and chemical potential using ELSI.
  | Chemical potential (Fermi level):    -5.70747390 eV
  Writing Kohn-Sham eigenvalues.

  State    Occupation    Eigenvalue [Ha]    Eigenvalue [eV]
      1       2.00000          -9.983666         -271.66938
      2       2.00000          -9.983385         -271.66172
      3       2.00000          -9.980005         -271.56974
      4       2.00000          -9.980004         -271.56974
      5       2.00000          -9.979822         -271.56477
      6       2.00000          -9.979822         -271.56476
      7       2.00000          -9.979305         -271.55071
      8       2.00000          -9.979305         -271.55071
      9       2.00000          -9.978372         -271.52532
     10       2.00000          -9.978372         -271.52532
     11       2.00000          -9.978257         -271.52218
     12       2.00000          -9.978257         -271.52218
     13       2.00000          -9.978224         -271.52129
     14       2.00000          -9.978224         -271.52129
     15       2.00000          -9.975361         -271.44338
     16       2.00000          -9.975361         -271.44338
     17       2.00000          -9.974865         -271.42988
     18       2.00000          -9.974865         -271.42988
     19       2.00000          -9.961133         -271.05622
     20       2.00000          -9.961133         -271.05622
     21       2.00000          -9.957488         -270.95704
     22       2.00000          -9.957488         -270.95704
     23       2.00000          -9.956553         -270.93159
     24       2.00000          -9.956553         -270.93159
     25       2.00000          -9.955324         -270.89814
     26       2.00000          -9.955324         -270.89814
     27       2.00000          -9.952846         -270.83071
     28       2.00000          -9.952845         -270.83071
     29       2.00000          -9.952149         -270.81175
     30       2.00000          -9.952149         -270.81175
     31       2.00000          -9.951964         -270.80671
     32       2.00000          -9.951964         -270.80671
     33       2.00000          -0.891494          -24.25877
     34       2.00000          -0.865986          -23.56468
     35       2.00000          -0.858357          -23.35708
     36       2.00000          -0.833792          -22.68863
     37       2.00000          -0.828805          -22.55294
     38       2.00000          -0.808948          -22.01259
     39       2.00000          -0.796277          -21.66779
     40       2.00000          -0.790178          -21.50184
     41       2.00000          -0.778266          -21.17770
     42       2.00000          -0.755492          -20.55798
     43       2.00000          -0.747563          -20.34224
     44       2.00000          -0.742465          -20.20349
     45       2.00000          -0.729493          -19.85053
     46       2.00000          -0.719952          -19.59088
     47       2.00000          -0.708124          -19.26904
     48       2.00000          -0.695257          -18.91890
     49       2.00000          -0.644593          -17.54027
     50       2.00000          -0.644168          -17.52871
     51       2.00000          -0.638215          -17.36672
     52       2.00000          -0.637168          -17.33822
     53       2.00000          -0.635352          -17.28880
     54       2.00000          -0.623194          -16.95798
     55       2.00000          -0.583209          -15.86994
     56       2.00000          -0.577169          -15.70558
     57       2.00000          -0.570720          -15.53009
     58       2.00000          -0.558478          -15.19697
     59       2.00000          -0.548366          -14.92180
     60       2.00000          -0.545286          -14.83800
     61       2.00000          -0.543501          -14.78942
     62       2.00000          -0.513498          -13.97300
     63       2.00000          -0.504593          -13.73068
     64       2.00000          -0.496135          -13.50051
     65       2.00000          -0.494182          -13.44737
     66       2.00000          -0.493365          -13.42514
     67       2.00000          -0.483438          -13.15503
     68       2.00000          -0.472593          -12.85992
     69       2.00000          -0.458230          -12.46907
     70       2.00000          -0.453807          -12.34872
     71       2.00000          -0.450538          -12.25975
     72       2.00000          -0.446787          -12.15768
     73       2.00000          -0.437832          -11.91403
     74       2.00000          -0.436899          -11.88862
     75       2.00000          -0.436875          -11.88797
     76       2.00000          -0.434956          -11.83576
     77       2.00000          -0.428893          -11.67078
     78       2.00000          -0.419951          -11.42744
     79       2.00000          -0.414236          -11.27192
     80       2.00000          -0.410151          -11.16078
     81       2.00000          -0.409431          -11.14120
     82       2.00000          -0.401571          -10.92731
     83       2.00000          -0.400657          -10.90244
     84       2.00000          -0.386216          -10.50948
     85       2.00000          -0.386075          -10.50565
     86       2.00000          -0.379543          -10.32790
     87       2.00000          -0.373302          -10.15807
     88       2.00000          -0.371341          -10.10472
     89       2.00000          -0.368751          -10.03423
     90       2.00000          -0.358196           -9.74702
     91       2.00000          -0.347349           -9.45184
     92       2.00000          -0.342344           -9.31565
     93       2.00000          -0.331916           -9.03189
     94       2.00000          -0.330481           -8.99284
     95       2.00000          -0.325581           -8.85951
     96       2.00000          -0.312811           -8.51202
     97       2.00000          -0.288314           -7.84542
     98       2.00000          -0.283953           -7.72675
     99       2.00000          -0.280723           -7.63886
    100       2.00000          -0.268330           -7.30164
    101       2.00000          -0.256121           -6.96941
    102       2.00000          -0.240159           -6.53505
    103       2.00000          -0.219549           -5.97424
    104       0.00000          -0.149190           -4.05968
    105       0.00000          -0.126495           -3.44211
    106       0.00000          -0.112212           -3.05345
    107       0.00000          -0.104053           -2.83143
    108       0.00000          -0.089046           -2.42305
    109       0.00000          -0.087859           -2.39077
    110       0.00000          -0.080632           -2.19410
    111       0.00000          -0.048311           -1.31460
    112       0.00000          -0.031757           -0.86416
    113       0.00000          -0.027575           -0.75034
    114       0.00000          -0.022968           -0.62498
    115       0.00000          -0.021590           -0.58750
    116       0.00000          -0.020072           -0.54620
    117       0.00000          -0.013020           -0.35428
    118       0.00000          -0.011601           -0.31568
    119       0.00000          -0.010185           -0.27715
    120       0.00000           0.001991            0.05419
    121       0.00000           0.003795            0.10328
    122       0.00000           0.019323            0.52580
    123       0.00000           0.020670            0.56247
    124       0.00000           0.033834            0.92067
    125       0.00000           0.037311            1.01527
    126       0.00000           0.037661            1.02480
    127       0.00000           0.040508            1.10227
    128       0.00000           0.053684            1.46082
    129       0.00000           0.062420            1.69852
    130       0.00000           0.062611            1.70374
    131       0.00000           0.068943            1.87604
    132       0.00000           0.069357            1.88729
    133       0.00000           0.071413            1.94324
    134       0.00000           0.085757            2.33356
    135       0.00000           0.087336            2.37653
    136       0.00000           0.088126            2.39802
    137       0.00000           0.089433            2.43360
    138       0.00000           0.090473            2.46190
    139       0.00000           0.101952            2.77426
    140       0.00000           0.102536            2.79013
    141       0.00000           0.102597            2.79180
    142       0.00000           0.106643            2.90191
    143       0.00000           0.109144            2.96996
    144       0.00000           0.114662            3.12012
    145       0.00000           0.117047            3.18501
    146       0.00000           0.124713            3.39362
    147       0.00000           0.125059            3.40302
    148       0.00000           0.128205            3.48863
    149       0.00000           0.131021            3.56527
    150       0.00000           0.132823            3.61429
    151       0.00000           0.133456            3.63153
    152       0.00000           0.138748            3.77554
    153       0.00000           0.147614            4.01678
    154       0.00000           0.150130            4.08523
    155       0.00000           0.150922            4.10679
    156       0.00000           0.152497            4.14966
    157       0.00000           0.154934            4.21598
    158       0.00000           0.155253            4.22465
    159       0.00000           0.156977            4.27156
    160       0.00000           0.159921            4.35166
    161       0.00000           0.160467            4.36652
    162       0.00000           0.162771            4.42924
    163       0.00000           0.169513            4.61268
    164       0.00000           0.171538            4.66777
    165       0.00000           0.172470            4.69315
    166       0.00000           0.179335            4.87996
    167       0.00000           0.179368            4.88086
    168       0.00000           0.181102            4.92804
    169       0.00000           0.182123            4.95581
    170       0.00000           0.182874            4.97624
    171       0.00000           0.187863            5.11202
    172       0.00000           0.193797            5.27349
    173       0.00000           0.197884            5.38469
    174       0.00000           0.199635            5.43234
    175       0.00000           0.202603            5.51311
    176       0.00000           0.205513            5.59228
    177       0.00000           0.206975            5.63209
    178       0.00000           0.209983            5.71392
    179       0.00000           0.210185            5.71944
    180       0.00000           0.210451            5.72666
    181       0.00000           0.214644            5.84077
    182       0.00000           0.219073            5.96127
    183       0.00000           0.223215            6.07398
    184       0.00000           0.226772            6.17079
    185       0.00000           0.230046            6.25988
    186       0.00000           0.231387            6.29637
    187       0.00000           0.235387            6.40522
    188       0.00000           0.241063            6.55965
    189       0.00000           0.241137            6.56166
    190       0.00000           0.245937            6.69227
    191       0.00000           0.246515            6.70800
    192       0.00000           0.250098            6.80552
    193       0.00000           0.251792            6.85161
    194       0.00000           0.253369            6.89453
    195       0.00000           0.257041            6.99444
    196       0.00000           0.261145            7.10611
    197       0.00000           0.272050            7.40285
    198       0.00000           0.273835            7.45142
    199       0.00000           0.275492            7.49651
    200       0.00000           0.279259            7.59903
    201       0.00000           0.282505            7.68736
    202       0.00000           0.291899            7.94298
    203       0.00000           0.294101            8.00289
    204       0.00000           0.296332            8.06360
    205       0.00000           0.299941            8.16180
    206       0.00000           0.304871            8.29597
    207       0.00000           0.306947            8.35245
    208       0.00000           0.317155            8.63023
    209       0.00000           0.317774            8.64707
    210       0.00000           0.318142            8.65710
    211       0.00000           0.319142            8.68430
    212       0.00000           0.324257            8.82349
    213       0.00000           0.325109            8.84668
    214       0.00000           0.325611            8.86033
    215       0.00000           0.330229            8.98599
    216       0.00000           0.330653            8.99754
    217       0.00000           0.339291            9.23258
    218       0.00000           0.340380            9.26220
    219       0.00000           0.351657            9.56908
    220       0.00000           0.355688            9.67875

  Highest occupied state (VBM) at     -5.97424195 eV
  | Occupation number:      2.00000000

  Lowest unoccupied state (CBM) at    -4.05967512 eV
  | Occupation number:      0.00000000

  Overall HOMO-LUMO gap:      1.91456683 eV.

  Total energy components:
  | Sum of eigenvalues            :        -711.27985665 Ha      -19354.90966642 eV
  | XC energy correction          :        -176.91569457 Ha       -4814.12098901 eV
  | XC potential correction       :         227.27680634 Ha        6184.51656515 eV
  | Free-atom electrostatic energy:        -535.64476241 Ha      -14575.63558546 eV
  | Hartree energy correction     :         -31.32857567 Ha        -852.49391829 eV
  | Entropy correction            :           0.00000000 Ha           0.00000000 eV
  | ---------------------------
  | Total energy                  :       -1227.89208296 Ha      -33412.64359404 eV
[...]
     50       2.00000          -0.586158          -15.95016
     51       2.00000          -0.580034          -15.78354
     52       2.00000          -0.579704          -15.77455
     53       2.00000          -0.576298          -15.68187
     54       2.00000          -0.564273          -15.35465
     55       2.00000          -0.523527          -14.24588
     56       2.00000          -0.518345          -14.10490
     57       2.00000          -0.512131          -13.93580
     58       2.00000          -0.498199          -13.55669
     59       2.00000          -0.488460          -13.29167
     60       2.00000          -0.485171          -13.20218
     61       2.00000          -0.484018          -13.17081
     62       2.00000          -0.453357          -12.33648
     63       2.00000          -0.444231          -12.08813
     64       2.00000          -0.435459          -11.84945
     65       2.00000          -0.433348          -11.79199
     66       2.00000          -0.432544          -11.77012
     67       2.00000          -0.422978          -11.50982
     68       2.00000          -0.410913          -11.18151
     69       2.00000          -0.397663          -10.82097
     70       2.00000          -0.397219          -10.80889
     71       2.00000          -0.392248          -10.67361
     72       2.00000          -0.387285          -10.53855
     73       2.00000          -0.386559          -10.51881
     74       2.00000          -0.377619          -10.27555
     75       2.00000          -0.375027          -10.20500
     76       2.00000          -0.372685          -10.14127
     77       2.00000          -0.370272          -10.07561
     78       2.00000          -0.367202           -9.99207
     79       2.00000          -0.360314           -9.80464
     80       2.00000          -0.357952           -9.74036
     81       2.00000          -0.350401           -9.53488
     82       2.00000          -0.347507           -9.45615
     83       2.00000          -0.339236           -9.23108
     84       2.00000          -0.333234           -9.06777
     85       2.00000          -0.328264           -8.93253
     86       2.00000          -0.324276           -8.82401
     87       2.00000          -0.323705           -8.80847
     88       2.00000          -0.315874           -8.59536
     89       2.00000          -0.309549           -8.42327
     90       2.00000          -0.305592           -8.31559
     91       2.00000          -0.296670           -8.07279
     92       2.00000          -0.290346           -7.90072
     93       2.00000          -0.285000           -7.75525
     94       2.00000          -0.278927           -7.58998
     95       2.00000          -0.271363           -7.38417
     96       2.00000          -0.268033           -7.29356
     97       2.00000          -0.245853           -6.68999
     98       2.00000          -0.242166           -6.58969
     99       2.00000          -0.238977           -6.50291
    100       2.00000          -0.225534           -6.13709
    101       2.00000          -0.213777           -5.81717
    102       2.00000          -0.197819           -5.38294
    103       2.00000          -0.175854           -4.78522
    104       0.00000          -0.105194           -2.86248
    105       0.00000          -0.082953           -2.25726
    106       0.00000          -0.069399           -1.88843
    107       0.00000          -0.061475           -1.67282
    108       0.00000          -0.047138           -1.28268
    109       0.00000          -0.044935           -1.22276
    110       0.00000          -0.036631           -0.99678
    111       0.00000          -0.005540           -0.15076
    112       0.00000          -0.005538           -0.15069
    113       0.00000          -0.001220           -0.03320
    114       0.00000           0.000197            0.00536
    115       0.00000           0.009956            0.27093
    116       0.00000           0.011066            0.30112
    117       0.00000           0.011219            0.30528
    118       0.00000           0.023871            0.64957
    119       0.00000           0.024105            0.65592
    120       0.00000           0.025213            0.68608
    121       0.00000           0.028900            0.78641
    122       0.00000           0.041892            1.13995
    123       0.00000           0.042628            1.15997
    124       0.00000           0.062556            1.70223
    125       0.00000           0.063910            1.73908
    126       0.00000           0.073991            2.01340
    127       0.00000           0.078581            2.13831
    128       0.00000           0.079553            2.16475
    129       0.00000           0.085083            2.31524
    130       0.00000           0.089392            2.43248
    131       0.00000           0.092000            2.50345
    132       0.00000           0.092923            2.52856
    133       0.00000           0.099795            2.71555
    134       0.00000           0.112465            3.06034
    135       0.00000           0.112499            3.06126
    136       0.00000           0.114653            3.11985
    137       0.00000           0.117814            3.20588
    138       0.00000           0.118533            3.22544
    139       0.00000           0.124262            3.38133
    140       0.00000           0.125841            3.42431
    141       0.00000           0.128703            3.50218
    142       0.00000           0.133644            3.63664
    143       0.00000           0.144235            3.92484
    144       0.00000           0.146304            3.98113
    145       0.00000           0.146711            3.99221
    146       0.00000           0.149085            4.05680
    147       0.00000           0.155731            4.23765
    148       0.00000           0.161186            4.38610
    149       0.00000           0.164205            4.46824
    150       0.00000           0.165053            4.49132
    151       0.00000           0.172205            4.68593
    152       0.00000           0.174729            4.75462
    153       0.00000           0.176610            4.80579
    154       0.00000           0.178934            4.86905
    155       0.00000           0.180446            4.91019
    156       0.00000           0.185803            5.05596
    157       0.00000           0.186239            5.06782
    158       0.00000           0.188763            5.13651
    159       0.00000           0.190144            5.17409
    160       0.00000           0.194894            5.30332
    161       0.00000           0.196492            5.34683
    162       0.00000           0.199504            5.42877
    163       0.00000           0.204539            5.56578
    164       0.00000           0.205941            5.60395
    165       0.00000           0.207810            5.65478
    166       0.00000           0.210062            5.71607
    167       0.00000           0.210247            5.72111
    168       0.00000           0.215370            5.86052
    169       0.00000           0.218232            5.93840
    170       0.00000           0.219454            5.97164
    171       0.00000           0.224973            6.12184
    172       0.00000           0.225773            6.14359
    173       0.00000           0.230726            6.27839
    174       0.00000           0.233687            6.35895
    175       0.00000           0.237678            6.46756
    176       0.00000           0.238906            6.50097
    177       0.00000           0.242083            6.58741
    178       0.00000           0.243703            6.63150
    179       0.00000           0.244917            6.66454
    180       0.00000           0.245858            6.69013
    181       0.00000           0.248337            6.75760
    182       0.00000           0.249501            6.78927
    183       0.00000           0.251441            6.84205
    184       0.00000           0.257050            6.99468
    185       0.00000           0.261098            7.10485
    186       0.00000           0.267518            7.27953
    187       0.00000           0.269541            7.33458
    188       0.00000           0.270538            7.36171
    189       0.00000           0.272655            7.41933
    190       0.00000           0.274916            7.48083
    191       0.00000           0.277341            7.54682
    192       0.00000           0.283076            7.70289
    193       0.00000           0.283436            7.71269
    194       0.00000           0.287019            7.81019
    195       0.00000           0.288451            7.84916
    196       0.00000           0.296787            8.07597
    197       0.00000           0.302255            8.22479
    198       0.00000           0.303427            8.25667
    199       0.00000           0.305496            8.31297
    200       0.00000           0.315469            8.58435
    201       0.00000           0.315904            8.59619
    202       0.00000           0.321584            8.75075
    203       0.00000           0.324522            8.83071
    204       0.00000           0.325141            8.84752
    205       0.00000           0.326445            8.88301
    206       0.00000           0.333540            9.07607
    207       0.00000           0.343334            9.34259
    208       0.00000           0.346391            9.42578
    209       0.00000           0.347492            9.45574
    210       0.00000           0.349930            9.52208
    211       0.00000           0.350813            9.54610
    212       0.00000           0.353914            9.63049
    213       0.00000           0.355126            9.66347
    214       0.00000           0.359231            9.77518
    215       0.00000           0.367067            9.98841
    216       0.00000           0.367554           10.00166
    217       0.00000           0.375233           10.21061
    218       0.00000           0.383271           10.42934
    219       0.00000           0.393681           10.71261
    220       0.00000           0.404572           11.00897

  Highest occupied state (VBM) at     -4.78522136 eV
  | Occupation number:      2.00000000

  Lowest unoccupied state (CBM) at    -2.86248168 eV
  | Occupation number:      0.00000000

  Overall HOMO-LUMO gap:      1.92273968 eV.

  Total energy components:
  | Sum of eigenvalues            :        -699.44298475 Ha      -19032.81199395 eV
  | XC energy correction          :        -177.83113492 Ha       -4839.03138834 eV
  | XC potential correction       :         228.45026027 Ha        6216.44787126 eV
  | Free-atom electrostatic energy:        -535.64476241 Ha      -14575.63558546 eV
  | Hartree energy correction     :         -43.01376873 Ha       -1170.46419974 eV
  | Entropy correction            :           0.00000000 Ha           0.00000000 eV
  | ---------------------------
  | Total energy                  :       -1227.48239055 Ha      -33401.49529624 eV
  | Total energy, T -> 0          :       -1227.48239055 Ha      -33401.49529624 eV  <-- do not rely on this value for anything but (periodic) metals
  | Electronic free energy        :       -1227.48239055 Ha      -33401.49529624 eV

  Derived energy quantities:
  | Kinetic energy                :        1223.95408777 Ha       33305.48529261 eV
  | Electrostatic energy          :       -2273.60534340 Ha      -61867.94920050 eV
  | Energy correction for multipole
  | error in Hartree potential    :          -0.15467370 Ha          -4.20888547 eV
  | Sum of eigenvalues per atom                           :        -413.75678248 eV
  | Total energy (T->0) per atom                          :        -726.11946296 eV  <-- do not rely on this value for anything but (periodic) metals
  | Electronic free energy per atom                       :        -726.11946296 eV
  End evaluation of scaled ZORA corrections.
  | Time for scaled ZORA corrections           :        5.887 s           5.898 s
------------------------------------------------------------

  Energy and forces in a compact form:
  | Total energy uncorrected      :         -0.334014952962391E+05 eV
  | Total energy corrected        :         -0.334014952962391E+05 eV  <-- do not rely on this value for anything but (periodic) metals
  | Electronic free energy        :         -0.334014952962391E+05 eV

  ------------------------------------ 
  Start decomposition of the XC Energy 
  ------------------------------------ 
  X and C from original XC functional choice 
  Hartree-Fock Energy :          0.000000000 Ha              0.000000000 eV
  X Energy            :       -170.856426335 Ha          -4649.239911307 eV
  C Energy            :         -6.974708583 Ha           -189.791477037 eV
  Total XC Energy     :       -177.831134919 Ha          -4839.031388344 eV
  ------------------------------------ 
  LDA X and C from self-consistent density 
  X Energy LDA        :       -154.800640802 Ha          -4212.339757709 eV
  C Energy LDA        :        -13.391555893 Ha           -364.402776465 eV
  ------------------------------------ 
  End decomposition of the XC Energy 
  ------------------------------------ 

------------------------------------------------------------

------------------------------------------------------------------------------
  Final output of selected total energy values:

  The following output summarizes some interesting total energy values
  at the end of a run (AFTER all relaxation, molecular dynamics, etc.).

  | Total energy of the DFT / Hartree-Fock s.c.f. calculation      :         -33401.495296239 eV
  | Final zero-broadening corrected energy (caution - metals only) :         -33401.495296239 eV
  | For reference only, the value of 1 Hartree used in FHI-aims is :             27.211384500 eV

  Before relying on these values, please be sure to understand exactly which
  total energy value is referred to by a given number. Different objects may
  all carry the same name 'total energy'. Definitions:

  Total energy of the DFT / Hartree-Fock s.c.f. calculation:
  | Note that this energy does not include ANY quantities calculated after the
  | s.c.f. cycle, in particular not ANY RPA, MP2, etc. many-body perturbation terms.
  | Scalar relativistic effects have been included in the 'scaled ZORA' approximation.

  Final zero-broadening corrected energy:
  | For metallic systems only, a broadening of the occupation numbers at the Fermi
  | level can be extrapolated back to zero broadening by an electron-gas inspired
  | formula. For all systems that are not real metals, this value can be
  | meaningless and should be avoided.

------------------------------------------------------------------------------
  Methods described in the following list of references were used in this FHI-aims run.
  If you publish the results, please make sure to cite these reference if they apply.
  FHI-aims is an academic code, and for our developers (often, Ph.D. students
  and postdocs), scientific credit in the community is essential.
  Thank you for helping us!

  For any use of FHI-aims, please cite:

    Volker Blum, Ralf Gehrke, Felix Hanke, Paula Havu, Ville Havu,
    Xinguo Ren, Karsten Reuter, and Matthias Scheffler
    'Ab initio molecular simulations with numeric atom-centered orbitals'
    Computer Physics Communications 180, 2175-2196 (2009)
    http://dx.doi.org/10.1016/j.cpc.2009.06.022


  The scalable eigensolver library ELPA was used in your run.
  ELPA is essential especially for large systems on hundreds or thousands of CPUs.
  For ELPA, please cite:

    Andreas Marek, Volker Blum, Rainer Johanni, Ville Havu, Bruno Lang,
    Thomas Auckenthaler, Alexander Heinecke, Hans-Joachim Bungartz, and Hermann Lederer,
    'The ELPA Library - Scalable Parallel Eigenvalue Solutions
    for Electronic Structure Theory and Computational Science'
    The Journal of Physics: Condensed Matter 26, 213201 (2014).
    http://dx.doi.org/10.1088/0953-8984/26/21/213201


  The ELSI infrastructure was used in your run to solve the Kohn-Sham electronic structure.
  Please check out http://elsi-interchange.org to learn more.
  If scalability is important for your project, please acknowledge ELSI by citing:

    V. W-z. Yu, F. Corsetti, A. Garcia, W. P. Huhn, M. Jacquelin, W. Jia,
    B. Lange, L. Lin, J. Lu, W. Mi, A. Seifitokaldani, A. Vazquez-Mayagoitia,
    C. Yang, H. Yang, and V. Blum
    'ELSI: A unified software interface for Kohn-Sham electronic structure solvers'
    Computer Physics Communications 222, 267-285 (2018).
    http://dx.doi.org/10.1016/j.cpc.2017.09.007


  For the real-space grid partitioning and parallelization used in this calculation, please cite:

    Ville Havu, Volker Blum, Paula Havu, and Matthias Scheffler,
    'Efficient O(N) integration for all-electron electronic structure calculation'
    'using numerically tabulated basis functions'
    Journal of Computational Physics 228, 8367-8379 (2009).
    http://dx.doi.org/10.1016/j.jcp.2009.08.008

  Of course, there are many other important community references, e.g., those cited in the
  above references. Our list is limited to references that describe implementations in the
  FHI-aims code. The reason is purely practical (length of this list) - please credit others as well.

------------------------------------------------------------
          Leaving FHI-aims.
          Date     :  20210620, Time     :  173529.758

          Computational steps:
          | Number of self-consistency cycles          :           16
          | Number of SCF (re)initializations          :            1

          Detailed time accounting                     :  max(cpu_time)    wall_clock(cpu1)
          | Total time                                 :       97.501 s          97.680 s
          | Preparation time                           :        0.202 s           0.187 s
          | Boundary condition initalization           :        0.001 s           0.003 s
          | Grid partitioning                          :        0.700 s           0.704 s
          | Preloading free-atom quantities on grid    :        0.014 s           0.017 s
          | Free-atom superposition energy             :        0.063 s           0.063 s
          | Total time for integrations                :       57.509 s          57.513 s
          | Total time for solution of K.-S. equations :        2.679 s           2.704 s
          | Total time for density update              :       21.032 s          20.993 s
          | Total time for mixing                      :        0.119 s           0.123 s
          | Total time for Hartree multipole update    :        0.138 s           0.145 s
          | Total time for Hartree multipole sum       :        8.064 s           8.068 s
          | Total time for total energy evaluation     :        0.005 s           0.028 s
          | Total time for scaled ZORA corrections     :        5.887 s           5.898 s

          Partial memory accounting:
          | Residual value for overall tracked memory usage across tasks :     0.000000 MB (should be 0.000000 MB)
          | Peak values for overall tracked memory usage (after allocating zora_vector2):
          |   Minimum:       30.247 MB (on task  8)
          |   Maximum:       39.303 MB (on task 16)
          |   Average:       34.100 MB
          | Largest tracked array allocation (hamiltonian_shell):
          |   Minimum:        9.142 MB (on task  1)
          |   Maximum:        9.142 MB (on task  1)
          |   Average:        9.142 MB
          Note:  These values currently only include a subset of arrays which are explicitly tracked.
          The "true" memory usage will be greater.

          Have a nice day.
------------------------------------------------------------
