  MPI-parallelism will be employed.
------------------------------------------------------------
          Invoking FHI-aims ...
          Version 180607
          Git rev. (modified): 6724847 Fix JSON memory corruption in scf_solver
          Compiled on 2018/06/27 at 16:00:31 on host coe.psc.edu.

          When using FHI-aims, please cite the following reference:

          Volker Blum, Ralf Gehrke, Felix Hanke, Paula Havu,
          Ville Havu, Xinguo Ren, Karsten Reuter, and Matthias Scheffler,
          'Ab Initio Molecular Simulations with Numeric Atom-Centered Orbitals',
          Computer Physics Communications 180, 2175-2196 (2009)

          For any questions about FHI-aims, please visit the aimsclub website
          with its forums and wiki. Contributions to both the forums and the
          wiki are warmly encouraged - they are for you, and everyone is welcome there.

------------------------------------------------------------



  Date     :  20210620, Time     :  180013.767
  Time zero on CPU 1             :   0.286599000000000E+00  s.
  Internal wall clock time zero  :           393444013.767  s.

  FHI-aims created a unique identifier for this run for later identification
  aims_uuid : F547DE43-EF38-42E6-A8D3-C72FFB410314

  Using       56 parallel tasks.
  Task        0 on host d021 reporting.
  Task        1 on host d021 reporting.
  Task        2 on host d021 reporting.
  Task        3 on host d021 reporting.
  Task        4 on host d021 reporting.
  Task        5 on host d021 reporting.
  Task        6 on host d021 reporting.
  Task        7 on host d021 reporting.
  Task        8 on host d021 reporting.
  Task        9 on host d021 reporting.
  Task       10 on host d021 reporting.
  Task       11 on host d021 reporting.
  Task       12 on host d021 reporting.
  Task       13 on host d021 reporting.
  Task       14 on host d021 reporting.
  Task       15 on host d021 reporting.
  Task       16 on host d021 reporting.
  Task       17 on host d021 reporting.
  Task       18 on host d021 reporting.
  Task       19 on host d021 reporting.
  Task       20 on host d021 reporting.
  Task       21 on host d021 reporting.
  Task       22 on host d021 reporting.
  Task       23 on host d021 reporting.
  Task       24 on host d021 reporting.
  Task       25 on host d021 reporting.
  Task       26 on host d021 reporting.
  Task       27 on host d021 reporting.
  Task       28 on host d021 reporting.
  Task       29 on host d021 reporting.
  Task       30 on host d021 reporting.
  Task       31 on host d021 reporting.
  Task       32 on host d021 reporting.
  Task       33 on host d021 reporting.
  Task       34 on host d021 reporting.
  Task       35 on host d021 reporting.
  Task       36 on host d021 reporting.
  Task       37 on host d021 reporting.
  Task       38 on host d021 reporting.
  Task       39 on host d021 reporting.
  Task       40 on host d021 reporting.
  Task       41 on host d021 reporting.
  Task       42 on host d021 reporting.
  Task       43 on host d021 reporting.
  Task       44 on host d021 reporting.
  Task       45 on host d021 reporting.
  Task       46 on host d021 reporting.
  Task       47 on host d021 reporting.
  Task       48 on host d021 reporting.
  Task       49 on host d021 reporting.
  Task       50 on host d021 reporting.
  Task       51 on host d021 reporting.
  Task       52 on host d021 reporting.
  Task       53 on host d021 reporting.
  Task       54 on host d021 reporting.
  Task       55 on host d021 reporting.

  Performing system and environment tests:
  *** Environment variable OMP_NUM_THREADS is not set
  *** For performance reasons you might want to set it to 1
  | Stacksize not measured: no C compiler
  | Checking for scalapack...
  | Testing pdtran()...
  | All pdtran() tests passed.

  Obtaining array dimensions for all initial allocations:
  
  -----------------------------------------------------------------------
  Parsing control.in (first pass over file, find array dimensions only).
  The contents of control.in will be repeated verbatim below
  unless switched off by setting 'verbatim_writeout .false.' .
  in the first line of control.in .
  -----------------------------------------------------------------------
  
  #===============================================================================
  # FHI-aims file: ./Runs/es/control.in
  # Created using the Atomic Simulation Environment (ASE)
  # Mon Jan 13 16:04:38 2020
  #===============================================================================
  xc                                 pbe
  relativistic                       zora scalar 1e-12
  occupation_type                    gaussian 0.0001
  load_balancing                     .true.
  KS_method                          scalapack_fast
  mixer                              pulay
  n_max_pulay                        5
  charge_mix_param                   0.4
  sc_accuracy_etot                   1e-6
  sc_accuracy_eev                    1e-4
  sc_accuracy_rho                    1e-6
  sc_iter_limit                      100
  prodbas_threshold                  1e-4
  basis_threshold                    1e-5
  override_illconditioning           .true.
  use_logsbt                         .true.
  spin                               none
  charge                             0
  #===============================================================================
  
  ################################################################################
  #
  #  FHI-aims code project
  # Volker Blum, Fritz Haber Institute Berlin, 2009
  #
  #  Suggested "tight" defaults for H atom (to be pasted into control.in file)
  #
  ################################################################################
    species        H
  #     global species definitions
      nucleus             1
      mass                1.00794
  #
      l_hartree           6
  #
      cut_pot             4.0  2.0  1.0
      basis_dep_cutoff    1e-4
  #
      radial_base         24 7.0
      radial_multiplier   2
      angular_grids       specified
        division   0.1930   50
        division   0.3175  110
        division   0.4293  194
        division   0.5066  302
        division   0.5626  434
  #      division   0.5922  590
  #      division   0.6227  974
  #      division   0.6868 1202
  #      outer_grid  770
        outer_grid  434
  ################################################################################
  #
  #  Definition of "minimal" basis
  #
  ################################################################################
  #     valence basis states
      valence      1  s   1.
  #     ion occupancy
      ion_occ      1  s   0.5
  ################################################################################
  #
  #  Suggested additional basis functions. For production calculations,
  #  uncomment them one after another (the most important basis functions are
  #  listed first).
  #
  #  Basis constructed for dimers: 0.5 A, 0.7 A, 1.0 A, 1.5 A, 2.5 A
  #
  ################################################################################
  #  "First tier" - improvements: -1014.90 meV to -62.69 meV
       hydro 2 s 2.1
       hydro 2 p 3.5
  #  "Second tier" - improvements: -12.89 meV to -1.83 meV
       hydro 1 s 0.85
       hydro 2 p 3.7
       hydro 2 s 1.2
       hydro 3 d 7
  #  "Third tier" - improvements: -0.25 meV to -0.12 meV
  #     hydro 4 f 11.2
  #     hydro 3 p 4.8
  #     hydro 4 d 9
  #     hydro 3 s 3.2
  ################################################################################
  #
  # For methods that use the localized form of the "resolution of identity" for
  # the two-electron Coulomb operator (RI_method LVL), particularly Hartree-Fock and
  # hybrid density functional calculations, the highest accuracy can be obtained by
  # uncommenting the line beginning with "for_aux"  below, thus adding an extra g radial
  # function to the construction of the product basis set for the expansion.
  # See Ref. New J. Phys. 17, 093020 (2015) for more information, particularly Figs. 1 and 6.
  #
  ################################################################################
  #
  # for_aux hydro 5 g 6.0
  ################################################################################
  #
  #  FHI-aims code project
  # Volker Blum, Fritz Haber Institute Berlin, 2009
  #
  #  Suggested "tight" defaults for C atom (to be pasted into control.in file)
  #
  ################################################################################
    species        C
  #     global species definitions
      nucleus             6
      mass                12.0107
  #
      l_hartree           6
  #
      cut_pot             4.0  2.0  1.0
      basis_dep_cutoff    1e-4
  #
      radial_base         34 7.0
      radial_multiplier   2
      angular_grids specified
        division   0.2187   50
        division   0.4416  110
        division   0.6335  194
        division   0.7727  302
        division   0.8772  434
  #      division   0.9334  590
  #      division   0.9924  770
  #      division   1.0230  974
  #      division   1.5020 1202
  #     outer_grid  974
        outer_grid  434
  ################################################################################
  #
  #  Definition of "minimal" basis
  #
  ################################################################################
  #     valence basis states
      valence      2  s   2.
      valence      2  p   2.
  #     ion occupancy
      ion_occ      2  s   1.
      ion_occ      2  p   1.
  ################################################################################
  #
  #  Suggested additional basis functions. For production calculations,
  #  uncomment them one after another (the most important basis functions are
  #  listed first).
  #
  #  Constructed for dimers: 1.0 A, 1.25 A, 1.5 A, 2.0 A, 3.0 A
  #
  ################################################################################
  #  "First tier" - improvements: -1214.57 meV to -155.61 meV
       hydro 2 p 1.7
       hydro 3 d 6
       hydro 2 s 4.9
  #  "Second tier" - improvements: -67.75 meV to -5.23 meV
       hydro 4 f 9.8
       hydro 3 p 5.2
       hydro 3 s 4.3
       hydro 5 g 14.4
       hydro 3 d 6.2
  #  "Third tier" - improvements: -2.43 meV to -0.60 meV
  #     hydro 2 p 5.6
  #     hydro 2 s 1.4
  #     hydro 3 d 4.9
  #     hydro 4 f 11.2
  #  "Fourth tier" - improvements: -0.39 meV to -0.18 meV
  #     hydro 2 p 2.1
  #     hydro 5 g 16.4
  #     hydro 4 d 13.2
  #     hydro 3 s 13.6
  #     hydro 4 f 17.6
  #  Further basis functions - improvements: -0.08 meV and below
  #     hydro 3 s 2
  #     hydro 3 p 6
  #     hydro 4 d 20
  ################################################################################
  #
  # For methods that use the localized form of the "resolution of identity" for
  # the two-electron Coulomb operator (RI_method LVL), particularly Hartree-Fock and
  # hybrid density functional calculations, the highest accuracy can be obtained by
  # uncommenting the line beginning with "for_aux"  below, thus adding an extra g radial
  # function to the construction of the product basis set for the expansion.
  # See Ref. New J. Phys. 17, 093020 (2015) for more information, particularly Figs. 1 and 6.
  #
  ################################################################################
  #
  # for_aux hydro 5 g 6.0
  
  -----------------------------------------------------------------------
  Completed first pass over input file control.in .
  -----------------------------------------------------------------------
  
  
  -----------------------------------------------------------------------
  Parsing geometry.in (first pass over file, find array dimensions only).
  The contents of geometry.in will be repeated verbatim below
  unless switched off by setting 'verbatim_writeout .false.' .
  in the first line of geometry.in .
  -----------------------------------------------------------------------
  
  #=======================================================
  # FHI-aims file: geometry.in
  # Created using the Atomic Simulation Environment (ASE)
  # Sun Jun 20 15:47:02 2021
  #=======================================================
  atom 61.5844239999999985 14.9290330000000004 20.1004530000000017 H
  atom 60.8920570000000012 15.7184640000000009 20.3810049999999983 C
  atom 59.5576939999999979 15.7351679999999998 19.8235859999999988 C
  atom 61.2050460000000029 16.7207040000000013 21.2715919999999983 C
  atom 59.3250719999999987 14.9217390000000005 19.1372250000000008 H
  atom 58.6337240000000008 16.7095680000000009 20.0814720000000015 C
  atom 60.2705180000000027 17.7006720000000008 21.5847400000000000 C
  atom 62.1927909999999997 16.7531649999999992 21.7337850000000010 H
  atom 57.3294789999999992 16.7151360000000011 19.4239430000000013 C
  atom 59.0772279999999981 17.7229439999999983 20.9768650000000001 C
  atom 60.5245740000000012 18.4867619999999988 22.2954480000000004 H
  atom 56.8903770000000009 15.7128960000000006 18.5709969999999984 C
  atom 56.3990160000000031 17.6783999999999999 19.6722180000000009 C
  atom 58.3998289999999969 18.5424979999999984 21.2171319999999994 H
  atom 55.7320259999999976 15.6961919999999999 17.9390959999999993 C
  atom 57.5731589999999969 14.8893330000000006 18.3535560000000011 H
  atom 55.1242439999999974 17.6672639999999994 19.0835660000000011 C
  atom 56.6166109999999989 18.5035780000000010 20.3499300000000005 H
  atom 55.5174390000000031 14.8765820000000009 17.2550579999999982 H
  atom 54.7887670000000000 16.6594559999999987 18.2033890000000014 C
  atom 54.4326220000000021 18.4634880000000017 19.3406510000000011 H
  atom 53.4242419999999996 16.7095680000000009 17.5819000000000010 C
  atom 53.0158649999999980 15.7351679999999998 16.6977189999999993 C
  atom 52.5046620000000033 17.7006720000000008 17.7909320000000015 C
  atom 51.8017180000000010 15.7351679999999998 16.0706239999999987 C
  atom 53.6850069999999988 14.9055920000000004 16.4656219999999998 H
  atom 51.2031479999999988 17.7006720000000008 17.2423229999999990 C
  atom 52.7276049999999969 18.5311389999999996 18.4606349999999999 H
  atom 51.5764750000000021 14.9297570000000004 15.3767340000000008 H
  atom 50.8595889999999997 16.7429759999999987 16.3453289999999996 C
  atom 50.5415920000000014 18.5174979999999998 17.5166280000000008 H
  atom 49.5051410000000018 16.6650239999999989 15.6902019999999993 C
  atom 49.1615830000000003 15.7073280000000004 14.7932070000000007 C
  atom 48.5630120000000005 17.6728319999999997 15.9649070000000002 C
  atom 47.8600690000000029 15.7073280000000004 14.2445989999999991 C
  atom 49.8231380000000001 14.8905019999999997 14.5189029999999999 H
  atom 47.3488650000000035 17.6728319999999997 15.3378110000000003 C
  atom 48.7882549999999995 18.4782429999999991 16.6587959999999988 H
  atom 47.6371260000000021 14.8768609999999999 13.5748960000000007 H
  atom 46.9404880000000020 16.6984320000000004 14.4536300000000004 C
  atom 46.6797240000000002 18.5024079999999991 15.5699090000000009 H
  atom 45.5759630000000016 16.7485439999999990 13.8321410000000000 C
  atom 45.2404859999999971 15.7407360000000001 12.9519649999999995 C
  atom 44.6327039999999968 17.7118080000000013 14.0964340000000004 C
  atom 43.9657139999999984 15.7295999999999996 12.3633120000000005 C
  atom 45.9320969999999988 14.9444560000000006 12.6949600000000000 H
  atom 43.4743530000000007 17.6951040000000006 13.4645329999999994 C
  atom 44.8472799999999978 18.5313620000000014 14.7805529999999994 H
  atom 43.7481190000000026 14.9044779999999992 11.6856000000000009 H
  atom 43.0352519999999998 16.6928640000000001 12.6115870000000001 C
  atom 42.7912859999999995 18.5185560000000002 13.6821350000000006 H
  atom 41.7310060000000007 16.6984320000000004 11.9540579999999999 C
  atom 41.2875020000000035 15.6850559999999994 11.0586649999999995 C
  atom 40.8070359999999965 17.6728319999999997 12.2119440000000008 C
  atom 40.0942119999999989 15.7073280000000004 10.4507910000000006 C
  atom 41.9647980000000018 14.8651119999999999 10.8191190000000006 H
  atom 39.4726739999999978 17.6895360000000004 11.6545260000000006 C
  atom 41.0399090000000015 18.4862609999999989 12.8983860000000004 H
  atom 39.8393670000000029 14.9201239999999995 9.7419250000000002 H
  atom 39.1596850000000032 16.6872959999999999 10.7639379999999996 C
  atom 38.7779910000000001 18.4772970000000001 11.9347569999999994 H
  atom 38.1718589999999978 16.6548900000000017 10.3023059999999997 H
  
  -----------------------------------------------------------------------
  Completed first pass over input file geometry.in .
  -----------------------------------------------------------------------
  

  Basic array size parameters:
  | Number of species                 :        2
  | Number of atoms                   :       62
  | Max. basis fn. angular momentum   :        4
  | Max. atomic/ionic basis occupied n:        2
  | Max. number of basis fn. types    :        2
  | Max. radial fns per species/type  :        8
  | Max. logarithmic grid size        :     1277
  | Max. radial integration grid size :       69
  | Max. angular integration grid size:      434
  | Max. angular grid division number :        8
  | Radial grid for Hartree potential :     1277
  | Number of spin channels           :        1

------------------------------------------------------------
          Reading file control.in.
------------------------------------------------------------
  XC: Using PBE gradient-corrected functionals.
  Scalar relativistic treatment of kinetic energy: ZORA.
  Threshold value for ZORA:   0.100000E-11
  Occupation type: Gaussian broadening, width =   0.100000E-03 eV.
  Since 'load_balancing .true.' is present in control.in, automatically turning on 'use_local_index .true.'.
  Using load balancing for integrations.
  Kohn-Sham electronic structure solved by the ELSI library.
  Using pulay charge density mixing.
  Pulay mixing - number of memorized iterations:    5
  Charge density mixing - mixing parameter:     0.4000
  Convergence accuracy of total energy:  0.1000E-05
  Convergence accuracy of sum of eigenvalues:  0.1000E-03
  Convergence accuracy of self-consistent charge density:  0.1000E-05
  Maximum number of s.-c. iterations  :   100
  * Ignoring prodbas_threshold
  Threshold for basis singularities:  0.1000E-04
  override_illconditioning: Explicitly overriding any built-in checks for an ill-conditioned overlap matrix.
  *** WARNING: If you use this flag, you should really know what you are doing.
  *** DO NOT keep this flag set by default in all your control.in files.
  Using 1D integrations for auxiliary 2-center integrals.
  Spin treatment: No spin polarisation.
  Charge =   0.000000E+00: Neutral system requested explicitly.
 
  Reading configuration options for species H                   .
  | Found nuclear charge :   1.0000
  | Found atomic mass :    1.00794000000000      amu
  | Found l_max for Hartree potential  :   6
  | Found cutoff potl. onset [A], width [A], scale factor :    4.00000    2.00000    1.00000
  | Threshold for basis-dependent cutoff potential is   0.100000E-03
  | Found data for basic radial integration grid :    24 points, outermost radius =    7.000 A
  | Found multiplier for basic radial grid :   2
  | Found angular grid specification: user-specified.
  | Specified grid contains     6 separate shells.
  | Check grid settings after all constraints further below.
  | Found free-atom valence shell :  1 s   1.000
  | No ionic wave fns used. Skipping ion_occ.
  | Found hydrogenic basis function :  2 s   2.100
  | Found hydrogenic basis function :  2 p   3.500
  | Found hydrogenic basis function :  1 s   0.850
  | Found hydrogenic basis function :  2 p   3.700
  | Found hydrogenic basis function :  2 s   1.200
  | Found hydrogenic basis function :  3 d   7.000
  Species H                   : Missing cutoff potential type.
  Defaulting to exp(1/x)/(1-x)^2 type cutoff potential.
  Species H : No 'logarithmic' tag. Using default grid for free atom:
  | Default logarithmic grid data [bohr] : 0.1000E-03 0.1000E+03 0.1012E+01
  Species H : On-site basis accuracy parameter (for Gram-Schmidt orthonormalisation) not specified.
  Using default value basis_acc =  0.1000000E-03.
  Species H                   : Using default innermost maximum threshold i_radial=  2 for radial functions.
  Species H                   : Default cutoff onset for free atom density etc. : 0.40000000E+01 AA.
  Species H                   : Basic radial grid will be enhanced according to radial_multiplier =   2, to contain    49 grid points.
 
  Reading configuration options for species C                   .
  | Found nuclear charge :   6.0000
  | Found atomic mass :    12.0107000000000      amu
  | Found l_max for Hartree potential  :   6
  | Found cutoff potl. onset [A], width [A], scale factor :    4.00000    2.00000    1.00000
  | Threshold for basis-dependent cutoff potential is   0.100000E-03
  | Found data for basic radial integration grid :    34 points, outermost radius =    7.000 A
  | Found multiplier for basic radial grid :   2
  | Found angular grid specification: user-specified.
  | Specified grid contains     6 separate shells.
  | Check grid settings after all constraints further below.
  | Found free-atom valence shell :  2 s   2.000
  | Found free-atom valence shell :  2 p   2.000
  | No ionic wave fns used. Skipping ion_occ.
  | No ionic wave fns used. Skipping ion_occ.
  | Found hydrogenic basis function :  2 p   1.700
  | Found hydrogenic basis function :  3 d   6.000
  | Found hydrogenic basis function :  2 s   4.900
  | Found hydrogenic basis function :  4 f   9.800
  | Found hydrogenic basis function :  3 p   5.200
  | Found hydrogenic basis function :  3 s   4.300
  | Found hydrogenic basis function :  5 g  14.400
  | Found hydrogenic basis function :  3 d   6.200
  Species C                   : Missing cutoff potential type.
  Defaulting to exp(1/x)/(1-x)^2 type cutoff potential.
  Species C : No 'logarithmic' tag. Using default grid for free atom:
  | Default logarithmic grid data [bohr] : 0.1000E-03 0.1000E+03 0.1012E+01
  Species C : On-site basis accuracy parameter (for Gram-Schmidt orthonormalisation) not specified.
  Using default value basis_acc =  0.1000000E-03.
  Species C                   : Using default innermost maximum threshold i_radial=  2 for radial functions.
  Species C                   : Default cutoff onset for free atom density etc. : 0.40000000E+01 AA.
  Species C                   : Basic radial grid will be enhanced according to radial_multiplier =   2, to contain    69 grid points.
 
  Finished reading input file 'control.in'. Consistency checks are next.
 
  MPI_IN_PLACE appears to work with this MPI implementation.
  | Keeping use_mpi_in_place .true. (see manual).
  Target number of points in a grid batch is not set. Defaulting to  100
  Method for grid partitioning is not set. Defaulting to parallel hash+maxmin partitioning.
  Batch size limit is not set. Defaulting to    200
  By default, will store active basis functions for each batch.
  If in need of memory, prune_basis_once .false. can be used to disable this option.
  communication_type for Hartree potential was not specified.
  Defaulting to calc_hartree .
  Pulay mixer: Number of initial linear mixing iterations not set.
  Defaulting to    0 iterations.
  Work space size for distributed Hartree potential not set.
  Defaulting to   0.200000E+03 MB.
  Algorithm-dependent basis array size parameters:
  | n_max_pulay                         :        5
  Presetting      1001 iterations before the initial mixing cycle
  is restarted anyway using the sc_init_iter criterion / keyword.
  Presetting a factor      1.000 between actual scf density residual
  and density convergence criterion sc_accuracy_rho below which sc_init_iter
  takes no effect.
  Calculation of forces was not defined in control.in. No forces will be calculated.
  Geometry relaxation not requested: no relaxation will be performed.
  No accuracy limit for integral partition fn. given. Defaulting to  0.1000E-14.
  No threshold value for u(r) in integrations given. Defaulting to  0.1000E-05.
  No accuracy for occupation numbers given. Defaulting to  0.1000E-12.
  No threshold value for occupation numbers given. Defaulting to  0.0000E+00.
  No accuracy for fermi level given. Defaulting to  0.1000E-19.
  Maximum # of iterations to find E_F not set. Defaulting to  200.
  Will not use alltoall communication since running on < 1024 CPUs.
  partition_type (choice of integration weights) for integrals was not specified.
  | Using a version of the partition function of Stratmann and coworkers ('stratmann_sparse').
  | At each grid point, the set of atoms used to build the partition table is smoothly restricted to
  | only those atoms whose free-atom density would be non-zero at that grid point.
  Partitioning for Hartree potential was not defined. Using partition_type for integrals.
  | Adjusted default value of keyword multip_moments_threshold to:       0.10000000E-11
  | This value may affect high angular momentum components of the Hartree potential in periodic systems.
  No q(lm)/r^(l+1) cutoff set for long-range Hartree potential.
  | Using default value of  0.100000E-09 .
  | Verify using the multipole_threshold keyword.
  Defaulting to new monopole extrapolation.
  Density update method: automatic selection selected.
 * Warning: use_local_index and/or load_balancing needs packed_matrix_format = index
 * Changing the default setting to packed_matrix_format = index
------------------------------------------------------------


------------------------------------------------------------
          Reading geometry description geometry.in.
------------------------------------------------------------
  Input structure read successfully.
  The structure contains       62 atoms,  and a total of        242.000 electrons.

  Input geometry:
  | No unit cell requested.
  | Atomic structure:
  |       Atom                x [A]            y [A]            z [A]
  |    1: Species H            61.58442400       14.92903300       20.10045300
  |    2: Species C            60.89205700       15.71846400       20.38100500
  |    3: Species C            59.55769400       15.73516800       19.82358600
  |    4: Species C            61.20504600       16.72070400       21.27159200
  |    5: Species H            59.32507200       14.92173900       19.13722500
  |    6: Species C            58.63372400       16.70956800       20.08147200
  |    7: Species C            60.27051800       17.70067200       21.58474000
  |    8: Species H            62.19279100       16.75316500       21.73378500
  |    9: Species C            57.32947900       16.71513600       19.42394300
  |   10: Species C            59.07722800       17.72294400       20.97686500
  |   11: Species H            60.52457400       18.48676200       22.29544800
  |   12: Species C            56.89037700       15.71289600       18.57099700
  |   13: Species C            56.39901600       17.67840000       19.67221800
  |   14: Species H            58.39982900       18.54249800       21.21713200
  |   15: Species C            55.73202600       15.69619200       17.93909600
  |   16: Species H            57.57315900       14.88933300       18.35355600
  |   17: Species C            55.12424400       17.66726400       19.08356600
  |   18: Species H            56.61661100       18.50357800       20.34993000
  |   19: Species H            55.51743900       14.87658200       17.25505800
  |   20: Species C            54.78876700       16.65945600       18.20338900
  |   21: Species H            54.43262200       18.46348800       19.34065100
  |   22: Species C            53.42424200       16.70956800       17.58190000
  |   23: Species C            53.01586500       15.73516800       16.69771900
  |   24: Species C            52.50466200       17.70067200       17.79093200
  |   25: Species C            51.80171800       15.73516800       16.07062400
  |   26: Species H            53.68500700       14.90559200       16.46562200
  |   27: Species C            51.20314800       17.70067200       17.24232300
  |   28: Species H            52.72760500       18.53113900       18.46063500
  |   29: Species H            51.57647500       14.92975700       15.37673400
  |   30: Species C            50.85958900       16.74297600       16.34532900
  |   31: Species H            50.54159200       18.51749800       17.51662800
  |   32: Species C            49.50514100       16.66502400       15.69020200
  |   33: Species C            49.16158300       15.70732800       14.79320700
  |   34: Species C            48.56301200       17.67283200       15.96490700
  |   35: Species C            47.86006900       15.70732800       14.24459900
  |   36: Species H            49.82313800       14.89050200       14.51890300
  |   37: Species C            47.34886500       17.67283200       15.33781100
  |   38: Species H            48.78825500       18.47824300       16.65879600
  |   39: Species H            47.63712600       14.87686100       13.57489600
  |   40: Species C            46.94048800       16.69843200       14.45363000
  |   41: Species H            46.67972400       18.50240800       15.56990900
  |   42: Species C            45.57596300       16.74854400       13.83214100
  |   43: Species C            45.24048600       15.74073600       12.95196500
  |   44: Species C            44.63270400       17.71180800       14.09643400
  |   45: Species C            43.96571400       15.72960000       12.36331200
  |   46: Species H            45.93209700       14.94445600       12.69496000
  |   47: Species C            43.47435300       17.69510400       13.46453300
  |   48: Species H            44.84728000       18.53136200       14.78055300
  |   49: Species H            43.74811900       14.90447800       11.68560000
  |   50: Species C            43.03525200       16.69286400       12.61158700
  |   51: Species H            42.79128600       18.51855600       13.68213500
  |   52: Species C            41.73100600       16.69843200       11.95405800
  |   53: Species C            41.28750200       15.68505600       11.05866500
  |   54: Species C            40.80703600       17.67283200       12.21194400
  |   55: Species C            40.09421200       15.70732800       10.45079100
  |   56: Species H            41.96479800       14.86511200       10.81911900
  |   57: Species C            39.47267400       17.68953600       11.65452600
  |   58: Species H            41.03990900       18.48626100       12.89838600
  |   59: Species H            39.83936700       14.92012400        9.74192500
  |   60: Species C            39.15968500       16.68729600       10.76393800
  |   61: Species H            38.77799100       18.47729700       11.93475700
  |   62: Species H            38.17185900       16.65489000       10.30230600
  |

  | The smallest distance between any two atoms is         1.08554426 AA.
  |
  | The first atom of this pair is atom number                     17 .
  | The second atom of this pair is atom number                    21 .

  Number of empty states per atom not set in control.in - providing a guess from actual geometry.
  | Total number of empty states used during s.c.f. cycle:      147
  If you use a very high smearing, use empty_states (per atom!) in control.in to increase this value.

  Structure-dependent array size parameters: 
  | Maximum number of distinct radial functions  :       18
  | Maximum number of basis functions            :     1794
  | Number of Kohn-Sham states (occupied + empty):      268
------------------------------------------------------------

------------------------------------------------------------
          Preparing all fixed parts of the calculation.
------------------------------------------------------------
  Determining machine precision:
    2.225073858507201E-308
  Setting up grids for atomic and cluster calculations.

  Creating wave function, potential, and density for free atoms.

  Species: H

  List of occupied orbitals and eigenvalues:
    n    l              occ      energy [Ha]    energy [eV]
    1    0           1.0000        -0.238386        -6.4868


  Species: C

  List of occupied orbitals and eigenvalues:
    n    l              occ      energy [Ha]    energy [eV]
    1    0           2.0000       -10.049212      -273.4530
    2    0           2.0000        -0.504761       -13.7352
    2    1           2.0000        -0.193631        -5.2690

  Creating fixed part of basis set: Ionic, confined, hydrogenic.
 
  H                    hydrogenic:
 
  List of hydrogenic basis orbitals: 
    n    l      effective z      eigenvalue [eV]  inner max. [A]     outer max. [A]     outer radius [A]   
    2    0         2.100000       -14.9965           0.193243           1.317208           5.373006
    2    1         3.500000       -41.6672           0.602369           0.602369           4.056063
    1    0         0.850000        -9.8292           0.624871           0.624871           5.373006
    2    1         3.700000       -46.5653           0.573622           0.573622           3.910002
    2    0         1.200000        -4.5995           0.334980           2.228188           5.505995
    3    2         7.000000       -74.0753           0.680699           0.680699           3.769201
 
 
  C                    hydrogenic:
 
  List of hydrogenic basis orbitals: 
    n    l      effective z      eigenvalue [eV]  inner max. [A]     outer max. [A]     outer radius [A]   
    2    1         1.700000        -9.8152           1.245706           1.245706           5.401630
    3    2         6.000000       -54.4226           0.792453           0.792453           4.178599
    2    0         4.900000       -81.6681           0.082559           0.562749           3.353238
    4    3         9.800000       -81.6681           0.863254           0.863254           4.028125
    3    1         5.200000       -40.8774           0.305389           1.215618           4.898362
    3    0         4.300000       -27.9508           0.091041           1.610311           5.401630
    5    4        14.400000      -112.8510           0.917666           0.917666           3.883070
    3    2         6.200000       -58.1113           0.763917           0.763917           4.077671
 

  Adding cutoff potential to free-atom effective potential.
  Creating atomic-like basis functions for current effective potential.

  Species H                   :

  List of atomic basis orbitals and eigenvalues:
    n    l      energy [Ha]    energy [eV]    outer radius [A]
    1    0        -0.238386        -6.4868       5.373006


  Species C                   :

  List of atomic basis orbitals and eigenvalues:
    n    l      energy [Ha]    energy [eV]    outer radius [A]
    1    0       -10.049212      -273.4530       1.934409
    2    0        -0.504761       -13.7352       5.271162
    2    1        -0.193631        -5.2690       5.401630

  Assembling full basis from fixed parts.
  | Species H :   atomic orbital   1 s accepted.
  | Species H :    hydro orbital   2 s accepted.
  | Species H :    hydro orbital   1 s accepted.
  | Species H :    hydro orbital   2 s accepted.
  | Species H :    hydro orbital   2 p accepted.
  | Species H :    hydro orbital   2 p accepted.
  | Species H :    hydro orbital   3 d accepted.
  | Species C :   atomic orbital   1 s accepted.
  | Species C :    hydro orbital   2 s accepted.
  | Species C :   atomic orbital   2 s accepted.
  | Species C :    hydro orbital   3 s accepted.
  | Species C :    hydro orbital   3 p accepted.
  | Species C :   atomic orbital   2 p accepted.
  | Species C :    hydro orbital   2 p accepted.
  | Species C :    hydro orbital   3 d accepted.
  | Species C :    hydro orbital   3 d accepted.
  | Species C :    hydro orbital   4 f accepted.
  | Species C :    hydro orbital   5 g accepted.
 
  Basis size parameters after reduction:
  | Total number of radial functions:       18
  | Total number of basis functions :     1794
 
  Per-task memory consumption for arrays in subroutine allocate_ext:
  |           4.455296MB.
  Testing on-site integration grid accuracy.
  |  Species  Function  <phi|h_atom|phi> (log., in eV)  <phi|h_atom|phi> (rad., in eV)
           1        1                 -6.4870767962                 -6.4871688290
           1        2                 13.5032046589                 13.5028982997
           1        3                 32.8195184817                 32.8119941656
           1        4                 33.8513856511                 33.7670005767 ***
           1        5                 28.8544614965                 28.8544615203
           1        6                 59.6326952547                 59.6327656460
           1        7                 60.2719308513                 60.2719305949
           2        8               -273.4529726040               -273.4529710464
           2        9                -10.7721037319                -10.7721022101
           2       10                 17.6044132601                 17.6044162063
           2       11                 53.7706460658                 53.7706913770
           2       12                 15.0973290362                 15.0973256030
           2       13                  3.8545134692                  3.8545724687
           2       14                 12.1156992592                 12.1182024431
           2       15                 29.4352039302                 29.4352041816
           2       16                 54.8741144708                 54.8740268729
           2       17                 59.3556032049                 59.3556031382
           2       18                 93.4551837154                 93.4551838009
 * Note: Onsite integrals marked "***" above are less accurate than
 * onsite_accuracy_threshold =    0.03000 eV. Usually, this is harmless.
 * When in doubt, tighten the "radial" and/or "radial_multiplier" flags to check.

  Preparing densities etc. for the partition functions (integrals / Hartree potential).

  Preparations completed.
  max(cpu_time)          :      0.220 s.
  Wall clock time (cpu1) :      0.268 s.
------------------------------------------------------------

------------------------------------------------------------
          Begin self-consistency loop: Initialization.

          Date     :  20210620, Time     :  180014.519
------------------------------------------------------------

  Initializing index lists of integration centers etc. from given atomic structure:
  | Number of centers in hartree potential         :        62
  | Number of centers in hartree multipole         :        62
  | Number of centers in electron density summation:        62
  | Number of centers in basis integrals           :        62
  | Number of centers in integrals                 :        62
  | Number of centers in hamiltonian               :        62
  * Using 56 tasks for Scalapack Eigenvalue solver.
  Detailed listing of tasks and assigned k-points:
  (for non-periodic systems, the "k-point" denotes an internal label only)
   Task     0 k-point     1 on d021
   Task     1 k-point     1 on d021
   Task     2 k-point     1 on d021
   Task     3 k-point     1 on d021
   Task     4 k-point     1 on d021
   Task     5 k-point     1 on d021
   Task     6 k-point     1 on d021
   Task     7 k-point     1 on d021
   Task     8 k-point     1 on d021
   Task     9 k-point     1 on d021
   Task    10 k-point     1 on d021
   Task    11 k-point     1 on d021
   Task    12 k-point     1 on d021
   Task    13 k-point     1 on d021
   Task    14 k-point     1 on d021
   Task    15 k-point     1 on d021
   Task    16 k-point     1 on d021
   Task    17 k-point     1 on d021
   Task    18 k-point     1 on d021
   Task    19 k-point     1 on d021
   Task    20 k-point     1 on d021
   Task    21 k-point     1 on d021
   Task    22 k-point     1 on d021
   Task    23 k-point     1 on d021
   Task    24 k-point     1 on d021
   Task    25 k-point     1 on d021
   Task    26 k-point     1 on d021
   Task    27 k-point     1 on d021
   Task    28 k-point     1 on d021
   Task    29 k-point     1 on d021
   Task    30 k-point     1 on d021
   Task    31 k-point     1 on d021
   Task    32 k-point     1 on d021
   Task    33 k-point     1 on d021
   Task    34 k-point     1 on d021
   Task    35 k-point     1 on d021
   Task    36 k-point     1 on d021
   Task    37 k-point     1 on d021
   Task    38 k-point     1 on d021
   Task    39 k-point     1 on d021
   Task    40 k-point     1 on d021
   Task    41 k-point     1 on d021
   Task    42 k-point     1 on d021
   Task    43 k-point     1 on d021
   Task    44 k-point     1 on d021
   Task    45 k-point     1 on d021
   Task    46 k-point     1 on d021
   Task    47 k-point     1 on d021
   Task    48 k-point     1 on d021
   Task    49 k-point     1 on d021
   Task    50 k-point     1 on d021
   Task    51 k-point     1 on d021
   Task    52 k-point     1 on d021
   Task    53 k-point     1 on d021
   Task    54 k-point     1 on d021
   Task    55 k-point     1 on d021
  Tasks:    56 split into      8 X      7 BLACS grid
  Calculating block size based on n_basis =         1794 max_nprow =            8 max_npcol =            7
  ScaLAPACK block size set to:           16
  Allocating        0.466 MB for ovlp
  Allocating        0.466 MB for ham
  Allocating        0.466 MB for eigenvec
  Required Scalapack workspace - INTEGER:            1 REAL:             1
  Partitioning the integration grid into batches with parallel hashing+maxmin method.
  | Number of batches:    11155
  | Maximal batch size:     200
  | Minimal batch size:      51
  | Average batch size:      92.022
  | Standard deviation of batch sizes:      29.800

  Integration load balanced across     56 MPI tasks.
  Work distribution over tasks is as follows:
  Task      0 has      18398 integration points.
  Task      1 has      18474 integration points.
  Task      2 has      18262 integration points.
  Task      3 has      18419 integration points.
  Task      4 has      18327 integration points.
  Task      5 has      18266 integration points.
  Task      6 has      18247 integration points.
  Task      7 has      18402 integration points.
  Task      8 has      18346 integration points.
  Task      9 has      18294 integration points.
  Task     10 has      18401 integration points.
  Task     11 has      18272 integration points.
  Task     12 has      18337 integration points.
  Task     13 has      18265 integration points.
  Task     14 has      18443 integration points.
  Task     15 has      18301 integration points.
  Task     16 has      18261 integration points.
  Task     17 has      18408 integration points.
  Task     18 has      18263 integration points.
  Task     19 has      18376 integration points.
  Task     20 has      18284 integration points.
  Task     21 has      18374 integration points.
  Task     22 has      18326 integration points.
  Task     23 has      18261 integration points.
  Task     24 has      18368 integration points.
  Task     25 has      18290 integration points.
  Task     26 has      18368 integration points.
  Task     27 has      18221 integration points.
  Task     28 has      18471 integration points.
  Task     29 has      18362 integration points.
  Task     30 has      18306 integration points.
  Task     31 has      18352 integration points.
  Task     32 has      18347 integration points.
  Task     33 has      18333 integration points.
  Task     34 has      18287 integration points.
  Task     35 has      18375 integration points.
  Task     36 has      18387 integration points.
  Task     37 has      18258 integration points.
  Task     38 has      18369 integration points.
  Task     39 has      18303 integration points.
  Task     40 has      18340 integration points.
  Task     41 has      18253 integration points.
  Task     42 has      18403 integration points.
  Task     43 has      18342 integration points.
  Task     44 has      18253 integration points.
  Task     45 has      18374 integration points.
  Task     46 has      18330 integration points.
  Task     47 has      18322 integration points.
  Task     48 has      18290 integration points.
  Task     49 has      18338 integration points.
  Task     50 has      18431 integration points.
  Task     51 has      18213 integration points.
  Task     52 has      18473 integration points.
  Task     53 has      18246 integration points.
  Task     54 has      18310 integration points.
  Task     55 has      18186 integration points.
  Initializing partition tables, free-atom densities, potentials, etc. across the integration grid (initialize_grid_storage).
  | initialize_grid_storage: Actual outermost partition radius vs. multipole_radius_free
  | (-- VB: in principle, multipole_radius_free should be larger, hence this output)
  | Species        1: Confinement radius =              6.000000000000000 AA, multipole_radius_free =              6.071692442739658 AA.
  | Species        1: outer_partition_radius set to              6.071692442739658 AA .
  | Species        2: Confinement radius =              6.000000000000000 AA, multipole_radius_free =              6.029870734432609 AA.
  | Species        2: outer_partition_radius set to              6.029870734432609 AA .
  | The sparse table of interatomic distances needs     36.1320 kbyte instead of    30.7520 kbyte of memory.
  | Using the partition_type stratmann_smoother will reduce your memory usage.
  | Net number of integration points:  1026508
  | of which are non-zero points    :   827025
  Renormalizing the initial density to the exact electron count on the 3D integration grid.
  | Initial density: Formal number of electrons (from input files) :     242.0000000000
  | Integrated number of electrons on 3D grid     :     242.0009584896
  | Charge integration error                      :       0.0009584896
  | Normalization factor for density and gradient :       0.9999960393
  Obtaining max. number of non-zero basis functions in each batch (get_n_compute_maxes).
  | Maximal number of non-zero basis functions:      649
  Selecting the method for density update.
  Loop over occupied states selected for charge density update.
  Hamiltonian matrix size:
  | Size of matrix non-packed:               1610115
  | Size of matrix packed:          893020
  Allocating        3.846 MB for KS_eigenvector
  use_local_index: Max. local matrix size =       443387
  Task:     0 matrix size:     112101
  Task:     1 matrix size:     118828
  Task:     2 matrix size:     163721
  Task:     3 matrix size:      72771
  Task:     4 matrix size:      94395
  Task:     5 matrix size:     152586
  Task:     6 matrix size:     176298
  Task:     7 matrix size:     288547
  Task:     8 matrix size:     278790
  Task:     9 matrix size:     323409
  Task:    10 matrix size:     394836
  Task:    11 matrix size:     375103
  Task:    12 matrix size:     275384
  Task:    13 matrix size:     407399
  Task:    14 matrix size:     284605
  Task:    15 matrix size:     323599
  Task:    16 matrix size:     350222
  Task:    17 matrix size:     303317
  Task:    18 matrix size:     325617
  Task:    19 matrix size:     321770
  Task:    20 matrix size:     322837
  Task:    21 matrix size:     209654
  Task:    22 matrix size:     298161
  Task:    23 matrix size:     285409
  Task:    24 matrix size:     389383
  Task:    25 matrix size:     360344
  Task:    26 matrix size:     355893
  Task:    27 matrix size:     295679
  Task:    28 matrix size:     268444
  Task:    29 matrix size:     344050
  Task:    30 matrix size:     353352
  Task:    31 matrix size:     285033
  Task:    32 matrix size:     301602
  Task:    33 matrix size:     280071
  Task:    34 matrix size:     209654
  Task:    35 matrix size:     300555
  Task:    36 matrix size:     305504
  Task:    37 matrix size:     282565
  Task:    38 matrix size:     296961
  Task:    39 matrix size:     263564
  Task:    40 matrix size:     307469
  Task:    41 matrix size:     285799
  Task:    42 matrix size:     443387
  Task:    43 matrix size:     404357
  Task:    44 matrix size:     222739
  Task:    45 matrix size:     341363
  Task:    46 matrix size:     291467
  Task:    47 matrix size:     357200
  Task:    48 matrix size:     296554
  Task:    49 matrix size:     171087
  Task:    50 matrix size:     115440
  Task:    51 matrix size:     101926
  Task:    52 matrix size:     178092
  Task:    53 matrix size:     118828
  Task:    54 matrix size:     121771
  Task:    55 matrix size:      71631
  Integrating Hamiltonian matrix: batch-based integration.
  Time summed over all CPUs for integration: real work      148.705 s, elapsed      214.892 s
  Time get_set_sparse_local_matrix_scalapack:     0.012076 s
  Start compute_balanced_batch_distribution
  Done load balancing, time needed:      0.012 s
  Integrating overlap matrix with loadbalancing
  Time summed over all CPUs for integration: real work       41.593 s, elapsed       47.094 s
  Time get_set_full_local_matrix_scalapack:     0.012033 s

  Updating Kohn-Sham eigenvalues and eigenvectors using ELSI and the ELPA eigensolver.
  Overlap matrix is not singular
  | Lowest and highest eigenvalues :  0.10E+02,  0.71E-04
  Finished singularity check of overlap matrix
  | Time :     0.217 s
  Finished Cholesky decomposition
  | Time :     0.030 s
  Finished transformation to standard eigenproblem
  | Time :     0.024 s
  Starting ELPA eigensolver
  Finished solving standard eigenproblem
  | Time :     0.145 s
  Finished back-transformation of eigenvectors
  | Time :     0.007 s

  Obtaining occupation numbers and chemical potential using ELSI.
  | Chemical potential (Fermi level):    -8.21883640 eV
  Writing Kohn-Sham eigenvalues.

  State    Occupation    Eigenvalue [Ha]    Eigenvalue [eV]
      1       2.00000         -10.186680         -277.19368
      2       2.00000         -10.186678         -277.19362
      3       2.00000         -10.184736         -277.14077
      4       2.00000         -10.184721         -277.14035
      5       2.00000         -10.179617         -277.00148
      6       2.00000         -10.179591         -277.00077
      7       2.00000         -10.177343         -276.93960
      8       2.00000         -10.177343         -276.93960
      9       2.00000         -10.175354         -276.88548
     10       2.00000         -10.175347         -276.88527
     11       2.00000         -10.174458         -276.86108
     12       2.00000         -10.174454         -276.86098
     13       2.00000         -10.173989         -276.84833
     14       2.00000         -10.173989         -276.84833
     15       2.00000         -10.173889         -276.84560
     16       2.00000         -10.173887         -276.84555
     17       2.00000         -10.173260         -276.82849
     18       2.00000         -10.173260         -276.82849
     19       2.00000         -10.172833         -276.81687
     20       2.00000         -10.172808         -276.81619
     21       2.00000         -10.172039         -276.79526
     22       2.00000         -10.172039         -276.79526
     23       2.00000         -10.171797         -276.78868
     24       2.00000         -10.171795         -276.78864
     25       2.00000         -10.170119         -276.74301
     26       2.00000         -10.170119         -276.74301
     27       2.00000         -10.169273         -276.72000
     28       2.00000         -10.169273         -276.72000
     29       2.00000         -10.167914         -276.68303
     30       2.00000         -10.167910         -276.68290
     31       2.00000         -10.167358         -276.66790
     32       2.00000         -10.167346         -276.66757
     33       2.00000         -10.167267         -276.66541
     34       2.00000         -10.167121         -276.66143
     35       2.00000         -10.165399         -276.61459
     36       2.00000         -10.165376         -276.61396
     37       2.00000          -1.023882          -27.86124
     38       2.00000          -1.022839          -27.83286
     39       2.00000          -1.011686          -27.52938
     40       2.00000          -1.001909          -27.26334
     41       2.00000          -0.996596          -27.11876
     42       2.00000          -0.994140          -27.05193
     43       2.00000          -0.940632          -25.59591
     44       2.00000          -0.930122          -25.30991
     45       2.00000          -0.914991          -24.89818
     46       2.00000          -0.903154          -24.57607
     47       2.00000          -0.900500          -24.50384
     48       2.00000          -0.893849          -24.32287
     49       2.00000          -0.889815          -24.21309
     50       2.00000          -0.885987          -24.10894
     51       2.00000          -0.883670          -24.04589
     52       2.00000          -0.882445          -24.01254
     53       2.00000          -0.871528          -23.71549
     54       2.00000          -0.858939          -23.37293
     55       2.00000          -0.793183          -21.58360
     56       2.00000          -0.782379          -21.28962
     57       2.00000          -0.775470          -21.10160
     58       2.00000          -0.772104          -21.01002
     59       2.00000          -0.759011          -20.65373
     60       2.00000          -0.757872          -20.62273
     61       2.00000          -0.744971          -20.27170
     62       2.00000          -0.741218          -20.16958
     63       2.00000          -0.734589          -19.98917
     64       2.00000          -0.730879          -19.88822
     65       2.00000          -0.725612          -19.74492
     66       2.00000          -0.722472          -19.65946
     67       2.00000          -0.689560          -18.76390
     68       2.00000          -0.685534          -18.65432
     69       2.00000          -0.671967          -18.28516
     70       2.00000          -0.661496          -18.00022
     71       2.00000          -0.656710          -17.86998
     72       2.00000          -0.651164          -17.71907
     73       2.00000          -0.636970          -17.33282
     74       2.00000          -0.633689          -17.24354
     75       2.00000          -0.618813          -16.83875
     76       2.00000          -0.616113          -16.76528
     77       2.00000          -0.612139          -16.65715
     78       2.00000          -0.610413          -16.61020
     79       2.00000          -0.605943          -16.48856
     80       2.00000          -0.592371          -16.11924
     81       2.00000          -0.590993          -16.08173
     82       2.00000          -0.582787          -15.85844
     83       2.00000          -0.580131          -15.78616
     84       2.00000          -0.576232          -15.68006
     85       2.00000          -0.576098          -15.67644
     86       2.00000          -0.570857          -15.53381
     87       2.00000          -0.569043          -15.48444
     88       2.00000          -0.564051          -15.34860
     89       2.00000          -0.562922          -15.31788
     90       2.00000          -0.562391          -15.30343
     91       2.00000          -0.555706          -15.12154
     92       2.00000          -0.554391          -15.08574
     93       2.00000          -0.536469          -14.59807
     94       2.00000          -0.535641          -14.57552
     95       2.00000          -0.533280          -14.51130
     96       2.00000          -0.522901          -14.22886
     97       2.00000          -0.521502          -14.19080
     98       2.00000          -0.512658          -13.95013
     99       2.00000          -0.512311          -13.94068
    100       2.00000          -0.508705          -13.84258
    101       2.00000          -0.504735          -13.73453
    102       2.00000          -0.504216          -13.72042
    103       2.00000          -0.503863          -13.71080
    104       2.00000          -0.502834          -13.68281
    105       2.00000          -0.497435          -13.53589
    106       2.00000          -0.495556          -13.48478
    107       2.00000          -0.487655          -13.26977
    108       2.00000          -0.479815          -13.05642
    109       2.00000          -0.476666          -12.97074
    110       2.00000          -0.456539          -12.42305
    111       2.00000          -0.441207          -12.00585
    112       2.00000          -0.423238          -11.51688
    113       2.00000          -0.413793          -11.25988
    114       2.00000          -0.411970          -11.21029
    115       2.00000          -0.406152          -11.05196
    116       2.00000          -0.402475          -10.95191
    117       2.00000          -0.402213          -10.94478
    118       2.00000          -0.400462          -10.89713
    119       2.00000          -0.396508          -10.78953
    120       2.00000          -0.377342          -10.26800
    121       2.00000          -0.363966           -9.90403
    122       0.00000          -0.258400           -7.03143
    123       0.00000          -0.243902           -6.63692
    124       0.00000          -0.222503           -6.05461
    125       0.00000          -0.219126           -5.96272
    126       0.00000          -0.217337           -5.91405
    127       0.00000          -0.212794           -5.79042
    128       0.00000          -0.206774           -5.62660
    129       0.00000          -0.200704           -5.46143
    130       0.00000          -0.197450           -5.37288
    131       0.00000          -0.191039           -5.19845
    132       0.00000          -0.167512           -4.55823
    133       0.00000          -0.144512           -3.93237
    134       0.00000          -0.093671           -2.54893
    135       0.00000          -0.079452           -2.16201
    136       0.00000          -0.078714           -2.14191
    137       0.00000          -0.078116           -2.12563
    138       0.00000          -0.075062           -2.04253
    139       0.00000          -0.069627           -1.89464
    140       0.00000          -0.067608           -1.83972
    141       0.00000          -0.064456           -1.75394
    142       0.00000          -0.058133           -1.58188
    143       0.00000          -0.056380           -1.53417
    144       0.00000          -0.051290           -1.39566
    145       0.00000          -0.047502           -1.29260
    146       0.00000          -0.036904           -1.00420
    147       0.00000          -0.036090           -0.98207
    148       0.00000          -0.028302           -0.77013
    149       0.00000          -0.027560           -0.74996
    150       0.00000          -0.024991           -0.68003
    151       0.00000          -0.019551           -0.53202
    152       0.00000          -0.019352           -0.52660
    153       0.00000          -0.017805           -0.48450
    154       0.00000          -0.015554           -0.42324
    155       0.00000          -0.012394           -0.33726
    156       0.00000          -0.010064           -0.27385
    157       0.00000          -0.007552           -0.20549
    158       0.00000          -0.003439           -0.09358
    159       0.00000           0.000010            0.00027
    160       0.00000           0.005100            0.13878
    161       0.00000           0.009142            0.24876
    162       0.00000           0.010074            0.27413
    163       0.00000           0.011854            0.32257
    164       0.00000           0.016156            0.43962
    165       0.00000           0.020036            0.54520
    166       0.00000           0.022428            0.61029
    167       0.00000           0.027879            0.75864
    168       0.00000           0.028980            0.78859
    169       0.00000           0.029715            0.80859
    170       0.00000           0.031556            0.85868
    171       0.00000           0.033926            0.92319
    172       0.00000           0.036063            0.98132
    173       0.00000           0.038234            1.04040
    174       0.00000           0.038283            1.04173
    175       0.00000           0.039929            1.08654
    176       0.00000           0.040551            1.10345
    177       0.00000           0.042725            1.16260
    178       0.00000           0.047406            1.28999
    179       0.00000           0.051746            1.40809
    180       0.00000           0.053714            1.46162
    181       0.00000           0.053975            1.46874
    182       0.00000           0.062134            1.69075
    183       0.00000           0.064160            1.74587
    184       0.00000           0.064737            1.76158
    185       0.00000           0.065382            1.77914
    186       0.00000           0.065970            1.79514
    187       0.00000           0.073684            2.00504
    188       0.00000           0.074604            2.03008
    189       0.00000           0.074798            2.03536
    190       0.00000           0.079941            2.17529
    191       0.00000           0.081728            2.22393
    192       0.00000           0.085691            2.33176
    193       0.00000           0.086660            2.35814
    194       0.00000           0.088745            2.41486
    195       0.00000           0.090586            2.46496
    196       0.00000           0.092471            2.51626
    197       0.00000           0.093776            2.55178
    198       0.00000           0.099979            2.72057
    199       0.00000           0.103044            2.80398
    200       0.00000           0.104576            2.84566
    201       0.00000           0.105003            2.85728
    202       0.00000           0.108526            2.95314
    203       0.00000           0.109409            2.97716
    204       0.00000           0.114906            3.12674
    205       0.00000           0.115882            3.15330
    206       0.00000           0.119368            3.24818
    207       0.00000           0.119829            3.26072
    208       0.00000           0.120395            3.27611
    209       0.00000           0.121891            3.31682
    210       0.00000           0.123634            3.36427
    211       0.00000           0.127148            3.45987
    212       0.00000           0.127660            3.47381
    213       0.00000           0.128452            3.49535
    214       0.00000           0.130303            3.54572
    215       0.00000           0.131017            3.56515
    216       0.00000           0.141831            3.85942
    217       0.00000           0.142341            3.87330
    218       0.00000           0.144065            3.92021
    219       0.00000           0.144671            3.93671
    220       0.00000           0.149324            4.06331
    221       0.00000           0.152431            4.14786
    222       0.00000           0.153615            4.18008
    223       0.00000           0.154170            4.19519
    224       0.00000           0.156847            4.26801
    225       0.00000           0.159231            4.33290
    226       0.00000           0.162166            4.41276
    227       0.00000           0.166020            4.51763
    228       0.00000           0.167698            4.56329
    229       0.00000           0.171289            4.66102
    230       0.00000           0.171764            4.67393
    231       0.00000           0.173081            4.70978
    232       0.00000           0.175520            4.77615
    233       0.00000           0.176648            4.80685
    234       0.00000           0.179965            4.89711
    235       0.00000           0.180075            4.90010
    236       0.00000           0.184910            5.03165
    237       0.00000           0.186854            5.08456
    238       0.00000           0.188585            5.13165
    239       0.00000           0.190257            5.17714
    240       0.00000           0.193158            5.25610
    241       0.00000           0.195706            5.32542
    242       0.00000           0.195766            5.32706
    243       0.00000           0.199090            5.41752
    244       0.00000           0.206996            5.63265
    245       0.00000           0.210224            5.72049
    246       0.00000           0.212082            5.77104
    247       0.00000           0.212091            5.77128
    248       0.00000           0.215403            5.86143
    249       0.00000           0.215822            5.87280
    250       0.00000           0.218265            5.93930
    251       0.00000           0.219530            5.97371
    252       0.00000           0.221181            6.01863
    253       0.00000           0.223132            6.07173
    254       0.00000           0.223596            6.08437
    255       0.00000           0.224288            6.10319
    256       0.00000           0.228608            6.22074
    257       0.00000           0.229134            6.23506
    258       0.00000           0.229567            6.24683
    259       0.00000           0.231511            6.29972
    260       0.00000           0.237111            6.45212
    261       0.00000           0.239796            6.52517
    262       0.00000           0.242761            6.60586
    263       0.00000           0.245696            6.68573
    264       0.00000           0.246251            6.70082
    265       0.00000           0.247230            6.72746
    266       0.00000           0.254426            6.92329
    267       0.00000           0.266652            7.25598
    268       0.00000           0.269802            7.34169

  Highest occupied state (VBM) at     -9.90402523 eV
  | Occupation number:      2.00000000

  Lowest unoccupied state (CBM) at    -7.03142877 eV
  | Occupation number:      0.00000000

  Overall HOMO-LUMO gap:      2.87259646 eV.
  Calculating total energy contributions from superposition of free atom densities.

  Total energy components:
  | Sum of eigenvalues            :        -842.82683751 Ha      -22934.48514241 eV
  | XC energy correction          :        -199.89675744 Ha       -5439.46752692 eV
  | XC potential correction       :         256.77471006 Ha        6987.19536527 eV
  | Free-atom electrostatic energy:        -602.75755722 Ha      -16401.86764967 eV
  | Hartree energy correction     :           0.00000000 Ha           0.00000000 eV
  | Entropy correction            :           0.00000000 Ha           0.00000000 eV
  | ---------------------------
  | Total energy                  :       -1388.70644210 Ha      -37788.62495372 eV
  | Total energy, T -> 0          :       -1388.70644210 Ha      -37788.62495372 eV  <-- do not rely on this value for anything but (periodic) metals
  | Electronic free energy        :       -1388.70644210 Ha      -37788.62495372 eV

  Derived energy quantities:
  | Kinetic energy                :        1374.97923441 Ha       37415.08862701 eV
  | Electrostatic energy          :       -2563.78891908 Ha      -69764.24605382 eV
  | Energy correction for multipole
  | error in Hartree potential    :           0.00000000 Ha           0.00000000 eV
  | Sum of eigenvalues per atom                           :        -369.91105068 eV
  | Total energy (T->0) per atom                          :        -609.49395087 eV  <-- do not rely on this value for anything but (periodic) metals
  | Electronic free energy per atom                       :        -609.49395087 eV
  Initialize hartree_potential_storage
  Max. number of atoms included in rho_multipole:           62

  End scf initialization - timings             :  max(cpu_time)    wall_clock(cpu1)
  | Time for scf. initialization               :        6.797 s           7.288 s
  | Boundary condition initialization          :        0.001 s           0.007 s
  | Integration                                :        4.696 s           4.737 s
  | Solution of K.-S. eqns.                    :        0.377 s           0.555 s
  | Grid partitioning                          :        0.943 s           1.018 s
  | Preloading free-atom quantities on grid    :        0.029 s           0.062 s
  | Free-atom superposition energy             :        0.100 s           0.102 s
  | Total energy evaluation                    :        0.001 s           0.038 s

  Partial memory accounting:
  | Current value for overall tracked memory usage on task 0  :           5.695 MB
  | Peak value for overall tracked memory usage on task 0     :          19.322 MB after allocating zora_vector2
  | Largest tracked array allocation on task 0 so far         :           3.846 MB  when allocating +KS_eigenvector
  Note:  These values currently only include a subset of arrays which are explicitly tracked.
  The "true" memory usage will be greater.
------------------------------------------------------------

------------------------------------------------------------
          Begin self-consistency iteration #    1

  Date     :  20210620, Time     :  180021.868
------------------------------------------------------------
  Evaluating new KS density.
  Integration grid: deviation in total charge (<rho> - N_e) =   5.684342E-14
  Pulay mixing of updated and previous charge densities.

  Evaluating partitioned Hartree potential by multipole expansion.
  | Analytical far-field extrapolation by fixed multipoles:
  | Hartree multipole sum: apparent total charge =   0.947132E-03
  Summing up the Hartree potential with load balancing.
  Time summed over all CPUs for potential: real work       35.616 s, elapsed       48.230 s
  | RMS charge density error from multipole expansion :   0.149411E-01

  Start compute_balanced_batch_distribution
  Done load balancing, time needed:      0.010 s
  Integrating Hamiltonian matrix: batch-based integration with load balancing
  Time summed over all CPUs for integration: real work      154.774 s, elapsed      168.396 s
  Time get_set_full_local_matrix_scalapack:     0.012420 s
  Start compute_balanced_batch_distribution
  Done load balancing, time needed:      0.010 s

  Updating Kohn-Sham eigenvalues and eigenvectors using ELSI and the ELPA eigensolver.
  Finished transformation to standard eigenproblem
  | Time :     0.027 s
  Starting ELPA eigensolver
  Finished solving standard eigenproblem
  | Time :     0.132 s
  Finished back-transformation of eigenvectors
  | Time :     0.006 s

  Obtaining occupation numbers and chemical potential using ELSI.
  | Chemical potential (Fermi level):    -3.77083768 eV
  Writing Kohn-Sham eigenvalues.

  State    Occupation    Eigenvalue [Ha]    Eigenvalue [eV]
      1       2.00000          -9.975434         -271.44537
      2       2.00000          -9.975283         -271.44127
      3       2.00000          -9.975192         -271.43879
      4       2.00000          -9.975191         -271.43877
      5       2.00000          -9.973400         -271.39003
      6       2.00000          -9.973388         -271.38970
      7       2.00000          -9.972661         -271.36991
      8       2.00000          -9.972660         -271.36988
      9       2.00000          -9.969955         -271.29629
     10       2.00000          -9.969949         -271.29612
     11       2.00000          -9.953451         -270.84718
     12       2.00000          -9.953435         -270.84673
     13       2.00000          -9.952532         -270.82216
     14       2.00000          -9.952531         -270.82216
     15       2.00000          -9.952253         -270.81459
     16       2.00000          -9.952252         -270.81454
     17       2.00000          -9.951623         -270.79744
     18       2.00000          -9.951622         -270.79742
     19       2.00000          -9.949986         -270.75291
     20       2.00000          -9.949925         -270.75122
     21       2.00000          -9.948692         -270.71769
     22       2.00000          -9.948691         -270.71766
     23       2.00000          -9.948044         -270.70005
     24       2.00000          -9.948043         -270.70003
     25       2.00000          -9.942034         -270.53651
     26       2.00000          -9.942033         -270.53648
     27       2.00000          -9.940993         -270.50817
     28       2.00000          -9.940985         -270.50796
     29       2.00000          -9.939883         -270.47797
     30       2.00000          -9.939828         -270.47649
     31       2.00000          -9.939824         -270.47637
     32       2.00000          -9.939821         -270.47629
     33       2.00000          -9.937094         -270.40207
     34       2.00000          -9.937076         -270.40161
     35       2.00000          -9.933866         -270.31426
     36       2.00000          -9.933833         -270.31336
     37       2.00000          -0.865719          -23.55742
     38       2.00000          -0.862754          -23.47672
     39       2.00000          -0.854301          -23.24671
     40       2.00000          -0.843528          -22.95358
     41       2.00000          -0.833857          -22.69041
     42       2.00000          -0.829604          -22.57467
     43       2.00000          -0.791943          -21.54986
     44       2.00000          -0.777347          -21.15269
     45       2.00000          -0.759781          -20.67468
     46       2.00000          -0.749463          -20.39393
     47       2.00000          -0.747347          -20.33636
     48       2.00000          -0.742880          -20.21480
     49       2.00000          -0.737163          -20.05922
     50       2.00000          -0.734661          -19.99114
     51       2.00000          -0.730781          -19.88556
     52       2.00000          -0.730057          -19.86587
     53       2.00000          -0.714549          -19.44386
     54       2.00000          -0.699293          -19.02872
     55       2.00000          -0.645787          -17.57275
     56       2.00000          -0.641890          -17.46673
     57       2.00000          -0.631327          -17.17928
     58       2.00000          -0.628801          -17.11056
     59       2.00000          -0.617995          -16.81651
     60       2.00000          -0.610869          -16.62258
     61       2.00000          -0.603180          -16.41336
     62       2.00000          -0.595242          -16.19737
     63       2.00000          -0.587693          -15.99195
     64       2.00000          -0.587294          -15.98107
     65       2.00000          -0.580453          -15.79493
     66       2.00000          -0.579088          -15.75779
     67       2.00000          -0.559087          -15.21353
     68       2.00000          -0.551554          -15.00855
     69       2.00000          -0.537182          -14.61747
     70       2.00000          -0.519023          -14.12333
     71       2.00000          -0.501450          -13.64514
     72       2.00000          -0.499100          -13.58121
     73       2.00000          -0.496407          -13.50792
     74       2.00000          -0.491668          -13.37896
     75       2.00000          -0.488675          -13.29751
     76       2.00000          -0.474380          -12.90853
     77       2.00000          -0.473122          -12.87430
     78       2.00000          -0.464638          -12.64343
     79       2.00000          -0.460020          -12.51779
     80       2.00000          -0.457492          -12.44899
     81       2.00000          -0.452433          -12.31134
     82       2.00000          -0.448260          -12.19777
     83       2.00000          -0.447779          -12.18467
     84       2.00000          -0.444751          -12.10229
     85       2.00000          -0.443889          -12.07883
     86       2.00000          -0.441707          -12.01947
     87       2.00000          -0.440699          -11.99203
     88       2.00000          -0.436242          -11.87074
     89       2.00000          -0.428585          -11.66239
     90       2.00000          -0.424279          -11.54522
     91       2.00000          -0.416912          -11.34474
     92       2.00000          -0.413924          -11.26344
     93       2.00000          -0.409309          -11.13786
     94       2.00000          -0.405276          -11.02812
     95       2.00000          -0.396353          -10.78530
     96       2.00000          -0.388058          -10.55958
     97       2.00000          -0.387623          -10.54776
     98       2.00000          -0.384679          -10.46764
     99       2.00000          -0.378889          -10.31009
    100       2.00000          -0.373330          -10.15883
    101       2.00000          -0.372515          -10.13665
    102       2.00000          -0.366730           -9.97923
    103       2.00000          -0.364943           -9.93061
    104       2.00000          -0.363585           -9.89365
    105       2.00000          -0.363293           -9.88569
    106       2.00000          -0.358133           -9.74530
    107       2.00000          -0.354193           -9.63809
    108       2.00000          -0.344247           -9.36745
    109       2.00000          -0.341338           -9.28827
    110       2.00000          -0.331342           -9.01626
    111       2.00000          -0.313415           -8.52845
    112       2.00000          -0.292953           -7.97166
    113       2.00000          -0.282334           -7.68269
    114       2.00000          -0.281004           -7.64651
    115       2.00000          -0.277684           -7.55618
    116       2.00000          -0.272907           -7.42617
    117       2.00000          -0.271884           -7.39835
    118       2.00000          -0.270561           -7.36234
    119       2.00000          -0.267755           -7.28599
    120       2.00000          -0.245618           -6.68359
    121       2.00000          -0.231722           -6.30547
    122       0.00000          -0.134536           -3.66091
    123       0.00000          -0.118176           -3.21574
    124       0.00000          -0.102606           -2.79205
    125       0.00000          -0.096064           -2.61403
    126       0.00000          -0.092634           -2.52071
    127       0.00000          -0.088897           -2.41900
    128       0.00000          -0.080643           -2.19442
    129       0.00000          -0.070037           -1.90581
    130       0.00000          -0.065721           -1.78836
    131       0.00000          -0.065170           -1.77337
    132       0.00000          -0.041106           -1.11856
    133       0.00000          -0.035174           -0.95714
    134       0.00000          -0.031826           -0.86602
    135       0.00000          -0.027520           -0.74886
    136       0.00000          -0.023768           -0.64677
    137       0.00000          -0.020730           -0.56410
    138       0.00000          -0.018431           -0.50153
    139       0.00000          -0.017073           -0.46458
    140       0.00000          -0.011620           -0.31620
    141       0.00000          -0.009436           -0.25677
    142       0.00000           0.000060            0.00164
    143       0.00000           0.000627            0.01707
    144       0.00000           0.011065            0.30111
    145       0.00000           0.011701            0.31841
    146       0.00000           0.022531            0.61309
[...]
     98       2.00000          -0.327356           -8.90782
     99       2.00000          -0.325342           -8.85302
    100       2.00000          -0.324978           -8.84311
    101       2.00000          -0.317612           -8.64266
    102       2.00000          -0.312687           -8.50864
    103       2.00000          -0.304547           -8.28715
    104       2.00000          -0.304422           -8.28373
    105       2.00000          -0.302868           -8.24145
    106       2.00000          -0.295928           -8.05262
    107       2.00000          -0.291842           -7.94144
    108       2.00000          -0.291336           -7.92766
    109       2.00000          -0.281246           -7.65309
    110       2.00000          -0.277244           -7.54421
    111       2.00000          -0.273802           -7.45052
    112       2.00000          -0.253277           -6.89201
    113       2.00000          -0.242165           -6.58965
    114       2.00000          -0.241013           -6.55829
    115       2.00000          -0.236740           -6.44204
    116       2.00000          -0.233359           -6.35003
    117       2.00000          -0.233154           -6.34444
    118       2.00000          -0.229675           -6.24978
    119       2.00000          -0.227190           -6.18216
    120       2.00000          -0.205178           -5.58319
    121       2.00000          -0.189629           -5.16008
    122       0.00000          -0.092708           -2.52271
    123       0.00000          -0.076997           -2.09520
    124       0.00000          -0.062067           -1.68894
    125       0.00000          -0.056036           -1.52481
    126       0.00000          -0.051458           -1.40025
    127       0.00000          -0.048836           -1.32888
    128       0.00000          -0.039221           -1.06725
    129       0.00000          -0.028527           -0.77626
    130       0.00000          -0.023607           -0.64238
    131       0.00000          -0.022545           -0.61347
    132       0.00000          -0.011281           -0.30698
    133       0.00000          -0.008536           -0.23228
    134       0.00000          -0.004233           -0.11518
    135       0.00000           0.000044            0.00119
    136       0.00000           0.000869            0.02363
    137       0.00000           0.002561            0.06969
    138       0.00000           0.005505            0.14980
    139       0.00000           0.011578            0.31506
    140       0.00000           0.013239            0.36024
    141       0.00000           0.022357            0.60837
    142       0.00000           0.023031            0.62671
    143       0.00000           0.025118            0.68351
    144       0.00000           0.032797            0.89245
    145       0.00000           0.035051            0.95379
    146       0.00000           0.044965            1.22356
    147       0.00000           0.050271            1.36795
    148       0.00000           0.056361            1.53367
    149       0.00000           0.061056            1.66143
    150       0.00000           0.068216            1.85624
    151       0.00000           0.075635            2.05813
    152       0.00000           0.077908            2.11997
    153       0.00000           0.080383            2.18734
    154       0.00000           0.082177            2.23616
    155       0.00000           0.083772            2.27956
    156       0.00000           0.086586            2.35612
    157       0.00000           0.090556            2.46416
    158       0.00000           0.096312            2.62079
    159       0.00000           0.100374            2.73132
    160       0.00000           0.102925            2.80074
    161       0.00000           0.105022            2.85780
    162       0.00000           0.106684            2.90302
    163       0.00000           0.109025            2.96671
    164       0.00000           0.114735            3.12209
    165       0.00000           0.121066            3.29438
    166       0.00000           0.124888            3.39836
    167       0.00000           0.126087            3.43101
    168       0.00000           0.126333            3.43769
    169       0.00000           0.131362            3.57454
    170       0.00000           0.133843            3.64206
    171       0.00000           0.136094            3.70331
    172       0.00000           0.138403            3.76613
    173       0.00000           0.138617            3.77196
    174       0.00000           0.140887            3.83372
    175       0.00000           0.142029            3.86479
    176       0.00000           0.143345            3.90063
    177       0.00000           0.148931            4.05261
    178       0.00000           0.153117            4.16652
    179       0.00000           0.154731            4.21043
    180       0.00000           0.155007            4.21796
    181       0.00000           0.155730            4.23764
    182       0.00000           0.159293            4.33459
    183       0.00000           0.160619            4.37065
    184       0.00000           0.165034            4.49080
    185       0.00000           0.166791            4.53860
    186       0.00000           0.166868            4.54070
    187       0.00000           0.167913            4.56916
    188       0.00000           0.170532            4.64042
    189       0.00000           0.173860            4.73097
    190       0.00000           0.176681            4.80774
    191       0.00000           0.181133            4.92888
    192       0.00000           0.183248            4.98644
    193       0.00000           0.183307            4.98804
    194       0.00000           0.185163            5.03855
    195       0.00000           0.189587            5.15892
    196       0.00000           0.189821            5.16530
    197       0.00000           0.191298            5.20548
    198       0.00000           0.192453            5.23690
    199       0.00000           0.196246            5.34013
    200       0.00000           0.197868            5.38427
    201       0.00000           0.198682            5.40642
    202       0.00000           0.203525            5.53821
    203       0.00000           0.204130            5.55467
    204       0.00000           0.209598            5.70345
    205       0.00000           0.213268            5.80332
    206       0.00000           0.215378            5.86073
    207       0.00000           0.217088            5.90727
    208       0.00000           0.218493            5.94551
    209       0.00000           0.223410            6.07928
    210       0.00000           0.226144            6.15370
    211       0.00000           0.228550            6.21915
    212       0.00000           0.230054            6.26008
    213       0.00000           0.230506            6.27238
    214       0.00000           0.234163            6.37190
    215       0.00000           0.239300            6.51169
    216       0.00000           0.241084            6.56022
    217       0.00000           0.242021            6.58573
    218       0.00000           0.243062            6.61406
    219       0.00000           0.247769            6.74215
    220       0.00000           0.251946            6.85581
    221       0.00000           0.251969            6.85641
    222       0.00000           0.255816            6.96110
    223       0.00000           0.257333            7.00238
    224       0.00000           0.261082            7.10439
    225       0.00000           0.262584            7.14527
    226       0.00000           0.263954            7.18254
    227       0.00000           0.265574            7.22665
    228       0.00000           0.265891            7.23527
    229       0.00000           0.268480            7.30572
    230       0.00000           0.269220            7.32586
    231       0.00000           0.273112            7.43176
    232       0.00000           0.277007            7.53775
    233       0.00000           0.280237            7.62564
    234       0.00000           0.282437            7.68550
    235       0.00000           0.284990            7.75496
    236       0.00000           0.287346            7.81909
    237       0.00000           0.288381            7.84723
    238       0.00000           0.288826            7.85936
    239       0.00000           0.290460            7.90381
    240       0.00000           0.293534            7.98748
    241       0.00000           0.294589            8.01617
    242       0.00000           0.295371            8.03745
    243       0.00000           0.300067            8.16523
    244       0.00000           0.309121            8.41161
    245       0.00000           0.312197            8.49530
    246       0.00000           0.313073            8.51914
    247       0.00000           0.315798            8.59331
    248       0.00000           0.316971            8.62521
    249       0.00000           0.317561            8.64127
    250       0.00000           0.318431            8.66495
    251       0.00000           0.319488            8.69371
    252       0.00000           0.323179            8.79415
    253       0.00000           0.327313            8.90665
    254       0.00000           0.327979            8.92477
    255       0.00000           0.337624            9.18723
    256       0.00000           0.337696            9.18917
    257       0.00000           0.338421            9.20891
    258       0.00000           0.342326            9.31517
    259       0.00000           0.344678            9.37917
    260       0.00000           0.347667            9.46050
    261       0.00000           0.349258            9.50380
    262       0.00000           0.358199            9.74710
    263       0.00000           0.366904            9.98396
    264       0.00000           0.367038            9.98760
    265       0.00000           0.371213           10.10122
    266       0.00000           0.373655           10.16768
    267       0.00000           0.378987           10.31275
    268       0.00000           0.383835           10.44468

  Highest occupied state (VBM) at     -5.16007718 eV
  | Occupation number:      2.00000000

  Lowest unoccupied state (CBM) at    -2.52270930 eV
  | Occupation number:      0.00000000

  Overall HOMO-LUMO gap:      2.63736788 eV.

  Total energy components:
  | Sum of eigenvalues            :        -789.76086199 Ha      -21490.48647866 eV
  | XC energy correction          :        -203.94013363 Ha       -5549.49339111 eV
  | XC potential correction       :         261.99547907 Ha        7129.25971811 eV
  | Free-atom electrostatic energy:        -602.75755722 Ha      -16401.86764967 eV
  | Hartree energy correction     :         -52.38469091 Ha       -1425.45996639 eV
  | Entropy correction            :           0.00000000 Ha           0.00000000 eV
  | ---------------------------
  | Total energy                  :       -1386.84776468 Ha      -37738.04776772 eV
  | Total energy, T -> 0          :       -1386.84776468 Ha      -37738.04776772 eV  <-- do not rely on this value for anything but (periodic) metals
  | Electronic free energy        :       -1386.84776468 Ha      -37738.04776772 eV

  Derived energy quantities:
  | Kinetic energy                :        1384.35265040 Ha       37670.15225361 eV
  | Electrostatic energy          :       -2567.26028145 Ha      -69858.70663022 eV
  | Energy correction for multipole
  | error in Hartree potential    :          -0.16791773 Ha          -4.56927402 eV
  | Sum of eigenvalues per atom                           :        -346.62074966 eV
  | Total energy (T->0) per atom                          :        -608.67818980 eV  <-- do not rely on this value for anything but (periodic) metals
  | Electronic free energy per atom                       :        -608.67818980 eV
  End evaluation of scaled ZORA corrections.
  | Time for scaled ZORA corrections           :        4.171 s           4.183 s
------------------------------------------------------------

  Energy and forces in a compact form:
  | Total energy uncorrected      :         -0.377380477677216E+05 eV
  | Total energy corrected        :         -0.377380477677216E+05 eV  <-- do not rely on this value for anything but (periodic) metals
  | Electronic free energy        :         -0.377380477677216E+05 eV

  ------------------------------------ 
  Start decomposition of the XC Energy 
  ------------------------------------ 
  X and C from original XC functional choice 
  Hartree-Fock Energy :          0.000000000 Ha              0.000000000 eV
  X Energy            :       -195.863464630 Ha          -5329.716045536 eV
  C Energy            :         -8.076668998 Ha           -219.777345578 eV
  Total XC Energy     :       -203.940133627 Ha          -5549.493391114 eV
  ------------------------------------ 
  LDA X and C from self-consistent density 
  X Energy LDA        :       -177.386140792 Ha          -4826.922482069 eV
  C Energy LDA        :        -15.571109592 Ha           -423.711450203 eV
  ------------------------------------ 
  End decomposition of the XC Energy 
  ------------------------------------ 

------------------------------------------------------------

------------------------------------------------------------------------------
  Final output of selected total energy values:

  The following output summarizes some interesting total energy values
  at the end of a run (AFTER all relaxation, molecular dynamics, etc.).

  | Total energy of the DFT / Hartree-Fock s.c.f. calculation      :         -37738.047767722 eV
  | Final zero-broadening corrected energy (caution - metals only) :         -37738.047767722 eV
  | For reference only, the value of 1 Hartree used in FHI-aims is :             27.211384500 eV

  Before relying on these values, please be sure to understand exactly which
  total energy value is referred to by a given number. Different objects may
  all carry the same name 'total energy'. Definitions:

  Total energy of the DFT / Hartree-Fock s.c.f. calculation:
  | Note that this energy does not include ANY quantities calculated after the
  | s.c.f. cycle, in particular not ANY RPA, MP2, etc. many-body perturbation terms.
  | Scalar relativistic effects have been included in the 'scaled ZORA' approximation.

  Final zero-broadening corrected energy:
  | For metallic systems only, a broadening of the occupation numbers at the Fermi
  | level can be extrapolated back to zero broadening by an electron-gas inspired
  | formula. For all systems that are not real metals, this value can be
  | meaningless and should be avoided.

------------------------------------------------------------------------------
  Methods described in the following list of references were used in this FHI-aims run.
  If you publish the results, please make sure to cite these reference if they apply.
  FHI-aims is an academic code, and for our developers (often, Ph.D. students
  and postdocs), scientific credit in the community is essential.
  Thank you for helping us!

  For any use of FHI-aims, please cite:

    Volker Blum, Ralf Gehrke, Felix Hanke, Paula Havu, Ville Havu,
    Xinguo Ren, Karsten Reuter, and Matthias Scheffler
    'Ab initio molecular simulations with numeric atom-centered orbitals'
    Computer Physics Communications 180, 2175-2196 (2009)
    http://dx.doi.org/10.1016/j.cpc.2009.06.022


  The scalable eigensolver library ELPA was used in your run.
  ELPA is essential especially for large systems on hundreds or thousands of CPUs.
  For ELPA, please cite:

    Andreas Marek, Volker Blum, Rainer Johanni, Ville Havu, Bruno Lang,
    Thomas Auckenthaler, Alexander Heinecke, Hans-Joachim Bungartz, and Hermann Lederer,
    'The ELPA Library - Scalable Parallel Eigenvalue Solutions
    for Electronic Structure Theory and Computational Science'
    The Journal of Physics: Condensed Matter 26, 213201 (2014).
    http://dx.doi.org/10.1088/0953-8984/26/21/213201


  The ELSI infrastructure was used in your run to solve the Kohn-Sham electronic structure.
  Please check out http://elsi-interchange.org to learn more.
  If scalability is important for your project, please acknowledge ELSI by citing:

    V. W-z. Yu, F. Corsetti, A. Garcia, W. P. Huhn, M. Jacquelin, W. Jia,
    B. Lange, L. Lin, J. Lu, W. Mi, A. Seifitokaldani, A. Vazquez-Mayagoitia,
    C. Yang, H. Yang, and V. Blum
    'ELSI: A unified software interface for Kohn-Sham electronic structure solvers'
    Computer Physics Communications 222, 267-285 (2018).
    http://dx.doi.org/10.1016/j.cpc.2017.09.007


  For the real-space grid partitioning and parallelization used in this calculation, please cite:

    Ville Havu, Volker Blum, Paula Havu, and Matthias Scheffler,
    'Efficient O(N) integration for all-electron electronic structure calculation'
    'using numerically tabulated basis functions'
    Journal of Computational Physics 228, 8367-8379 (2009).
    http://dx.doi.org/10.1016/j.jcp.2009.08.008

  Of course, there are many other important community references, e.g., those cited in the
  above references. Our list is limited to references that describe implementations in the
  FHI-aims code. The reason is purely practical (length of this list) - please credit others as well.

------------------------------------------------------------
          Leaving FHI-aims.
          Date     :  20210620, Time     :  180150.921

          Computational steps:
          | Number of self-consistency cycles          :           16
          | Number of SCF (re)initializations          :            1

          Detailed time accounting                     :  max(cpu_time)    wall_clock(cpu1)
          | Total time                                 :       94.938 s          97.154 s
          | Preparation time                           :        0.220 s           0.268 s
          | Boundary condition initalization           :        0.001 s           0.007 s
          | Grid partitioning                          :        0.943 s           1.018 s
          | Preloading free-atom quantities on grid    :        0.029 s           0.062 s
          | Free-atom superposition energy             :        0.100 s           0.102 s
          | Total time for integrations                :       50.785 s          50.830 s
          | Total time for solution of K.-S. equations :        3.689 s           3.871 s
          | Total time for density update              :       22.149 s          22.136 s
          | Total time for mixing                      :        0.163 s           0.166 s
          | Total time for Hartree multipole update    :        0.202 s           0.209 s
          | Total time for Hartree multipole sum       :       11.578 s          11.608 s
          | Total time for total energy evaluation     :        0.008 s           0.061 s
          | Total time for scaled ZORA corrections     :        4.171 s           4.183 s

          Partial memory accounting:
          | Residual value for overall tracked memory usage across tasks :     0.000000 MB (should be 0.000000 MB)
          | Peak values for overall tracked memory usage (after allocating zora_vector2):
          |   Minimum:       19.078 MB (on task 56)
          |   Maximum:       24.204 MB (on task 43)
          |   Average:       21.597 MB
          | Largest tracked array allocation (+KS_eigenvector):
          |   Minimum:        3.846 MB (on task  1)
          |   Maximum:        4.465 MB (on task 43)
          |   Average:        3.902 MB
          Note:  These values currently only include a subset of arrays which are explicitly tracked.
          The "true" memory usage will be greater.

          Have a nice day.
------------------------------------------------------------
