  MPI-parallelism will be employed.
------------------------------------------------------------
          Invoking FHI-aims ...
          Version 180607
          Git rev. (modified): 6724847 Fix JSON memory corruption in scf_solver
          Compiled on 2018/06/27 at 16:00:31 on host coe.psc.edu.

          When using FHI-aims, please cite the following reference:

          Volker Blum, Ralf Gehrke, Felix Hanke, Paula Havu,
          Ville Havu, Xinguo Ren, Karsten Reuter, and Matthias Scheffler,
          'Ab Initio Molecular Simulations with Numeric Atom-Centered Orbitals',
          Computer Physics Communications 180, 2175-2196 (2009)

          For any questions about FHI-aims, please visit the aimsclub website
          with its forums and wiki. Contributions to both the forums and the
          wiki are warmly encouraged - they are for you, and everyone is welcome there.

------------------------------------------------------------



  Date     :  20210809, Time     :  125250.139
  Time zero on CPU 1             :   0.289995000000000E+00  s.
  Internal wall clock time zero  :           397745570.139  s.

  FHI-aims created a unique identifier for this run for later identification
  aims_uuid : 3DD0FF1C-B7F7-4902-AAF9-F4961B4E15CE

  Using       56 parallel tasks.
  Task        0 on host e002 reporting.
  Task        1 on host e002 reporting.
  Task        2 on host e002 reporting.
  Task        3 on host e002 reporting.
  Task        4 on host e002 reporting.
  Task        5 on host e002 reporting.
  Task        6 on host e002 reporting.
  Task        7 on host e002 reporting.
  Task        8 on host e002 reporting.
  Task        9 on host e002 reporting.
  Task       10 on host e002 reporting.
  Task       11 on host e002 reporting.
  Task       12 on host e002 reporting.
  Task       13 on host e002 reporting.
  Task       14 on host e002 reporting.
  Task       15 on host e002 reporting.
  Task       16 on host e002 reporting.
  Task       17 on host e002 reporting.
  Task       18 on host e002 reporting.
  Task       19 on host e002 reporting.
  Task       20 on host e002 reporting.
  Task       21 on host e002 reporting.
  Task       22 on host e002 reporting.
  Task       23 on host e002 reporting.
  Task       24 on host e002 reporting.
  Task       25 on host e002 reporting.
  Task       26 on host e002 reporting.
  Task       27 on host e002 reporting.
  Task       28 on host e002 reporting.
  Task       29 on host e002 reporting.
  Task       30 on host e002 reporting.
  Task       31 on host e002 reporting.
  Task       32 on host e002 reporting.
  Task       33 on host e002 reporting.
  Task       34 on host e002 reporting.
  Task       35 on host e002 reporting.
  Task       36 on host e002 reporting.
  Task       37 on host e002 reporting.
  Task       38 on host e002 reporting.
  Task       39 on host e002 reporting.
  Task       40 on host e002 reporting.
  Task       41 on host e002 reporting.
  Task       42 on host e002 reporting.
  Task       43 on host e002 reporting.
  Task       44 on host e002 reporting.
  Task       45 on host e002 reporting.
  Task       46 on host e002 reporting.
  Task       47 on host e002 reporting.
  Task       48 on host e002 reporting.
  Task       49 on host e002 reporting.
  Task       50 on host e002 reporting.
  Task       51 on host e002 reporting.
  Task       52 on host e002 reporting.
  Task       53 on host e002 reporting.
  Task       54 on host e002 reporting.
  Task       55 on host e002 reporting.

  Performing system and environment tests:
  *** Environment variable OMP_NUM_THREADS is not set
  *** For performance reasons you might want to set it to 1
  | Stacksize not measured: no C compiler
  | Checking for scalapack...
  | Testing pdtran()...
  | All pdtran() tests passed.

  Obtaining array dimensions for all initial allocations:
  
  -----------------------------------------------------------------------
  Parsing control.in (first pass over file, find array dimensions only).
  The contents of control.in will be repeated verbatim below
  unless switched off by setting 'verbatim_writeout .false.' .
  in the first line of control.in .
  -----------------------------------------------------------------------
  
  #===============================================================================
  # FHI-aims file: ./Runs/es/control.in
  # Created using the Atomic Simulation Environment (ASE)
  # Mon Jan 13 16:04:38 2020
  #===============================================================================
  xc                                 pbe
  relativistic                       zora scalar 1e-12
  occupation_type                    gaussian 0.0001
  load_balancing                     .true.
  KS_method                          scalapack_fast
  mixer                              pulay
  n_max_pulay                        5
  charge_mix_param                   0.4
  sc_accuracy_etot                   1e-6
  sc_accuracy_eev                    1e-4
  sc_accuracy_rho                    1e-6
  sc_iter_limit                      100
  prodbas_threshold                  1e-4
  basis_threshold                    1e-5
  override_illconditioning           .true.
  use_logsbt                         .true.
  spin                               none
  charge                             0
  #===============================================================================
  
  ################################################################################
  #
  #  FHI-aims code project
  # Volker Blum, Fritz Haber Institute Berlin, 2009
  #
  #  Suggested "tight" defaults for H atom (to be pasted into control.in file)
  #
  ################################################################################
    species        H
  #     global species definitions
      nucleus             1
      mass                1.00794
  #
      l_hartree           6
  #
      cut_pot             4.0  2.0  1.0
      basis_dep_cutoff    1e-4
  #
      radial_base         24 7.0
      radial_multiplier   2
      angular_grids       specified
        division   0.1930   50
        division   0.3175  110
        division   0.4293  194
        division   0.5066  302
        division   0.5626  434
  #      division   0.5922  590
  #      division   0.6227  974
  #      division   0.6868 1202
  #      outer_grid  770
        outer_grid  434
  ################################################################################
  #
  #  Definition of "minimal" basis
  #
  ################################################################################
  #     valence basis states
      valence      1  s   1.
  #     ion occupancy
      ion_occ      1  s   0.5
  ################################################################################
  #
  #  Suggested additional basis functions. For production calculations,
  #  uncomment them one after another (the most important basis functions are
  #  listed first).
  #
  #  Basis constructed for dimers: 0.5 A, 0.7 A, 1.0 A, 1.5 A, 2.5 A
  #
  ################################################################################
  #  "First tier" - improvements: -1014.90 meV to -62.69 meV
       hydro 2 s 2.1
       hydro 2 p 3.5
  #  "Second tier" - improvements: -12.89 meV to -1.83 meV
       hydro 1 s 0.85
       hydro 2 p 3.7
       hydro 2 s 1.2
       hydro 3 d 7
  #  "Third tier" - improvements: -0.25 meV to -0.12 meV
  #     hydro 4 f 11.2
  #     hydro 3 p 4.8
  #     hydro 4 d 9
  #     hydro 3 s 3.2
  ################################################################################
  #
  # For methods that use the localized form of the "resolution of identity" for
  # the two-electron Coulomb operator (RI_method LVL), particularly Hartree-Fock and
  # hybrid density functional calculations, the highest accuracy can be obtained by
  # uncommenting the line beginning with "for_aux"  below, thus adding an extra g radial
  # function to the construction of the product basis set for the expansion.
  # See Ref. New J. Phys. 17, 093020 (2015) for more information, particularly Figs. 1 and 6.
  #
  ################################################################################
  #
  # for_aux hydro 5 g 6.0
  ################################################################################
  #
  #  FHI-aims code project
  # Volker Blum, Fritz Haber Institute Berlin, 2009
  #
  #  Suggested "tight" defaults for C atom (to be pasted into control.in file)
  #
  ################################################################################
    species        C
  #     global species definitions
      nucleus             6
      mass                12.0107
  #
      l_hartree           6
  #
      cut_pot             4.0  2.0  1.0
      basis_dep_cutoff    1e-4
  #
      radial_base         34 7.0
      radial_multiplier   2
      angular_grids specified
        division   0.2187   50
        division   0.4416  110
        division   0.6335  194
        division   0.7727  302
        division   0.8772  434
  #      division   0.9334  590
  #      division   0.9924  770
  #      division   1.0230  974
  #      division   1.5020 1202
  #     outer_grid  974
        outer_grid  434
  ################################################################################
  #
  #  Definition of "minimal" basis
  #
  ################################################################################
  #     valence basis states
      valence      2  s   2.
      valence      2  p   2.
  #     ion occupancy
      ion_occ      2  s   1.
      ion_occ      2  p   1.
  ################################################################################
  #
  #  Suggested additional basis functions. For production calculations,
  #  uncomment them one after another (the most important basis functions are
  #  listed first).
  #
  #  Constructed for dimers: 1.0 A, 1.25 A, 1.5 A, 2.0 A, 3.0 A
  #
  ################################################################################
  #  "First tier" - improvements: -1214.57 meV to -155.61 meV
       hydro 2 p 1.7
       hydro 3 d 6
       hydro 2 s 4.9
  #  "Second tier" - improvements: -67.75 meV to -5.23 meV
       hydro 4 f 9.8
       hydro 3 p 5.2
       hydro 3 s 4.3
       hydro 5 g 14.4
       hydro 3 d 6.2
  #  "Third tier" - improvements: -2.43 meV to -0.60 meV
  #     hydro 2 p 5.6
  #     hydro 2 s 1.4
  #     hydro 3 d 4.9
  #     hydro 4 f 11.2
  #  "Fourth tier" - improvements: -0.39 meV to -0.18 meV
  #     hydro 2 p 2.1
  #     hydro 5 g 16.4
  #     hydro 4 d 13.2
  #     hydro 3 s 13.6
  #     hydro 4 f 17.6
  #  Further basis functions - improvements: -0.08 meV and below
  #     hydro 3 s 2
  #     hydro 3 p 6
  #     hydro 4 d 20
  ################################################################################
  #
  # For methods that use the localized form of the "resolution of identity" for
  # the two-electron Coulomb operator (RI_method LVL), particularly Hartree-Fock and
  # hybrid density functional calculations, the highest accuracy can be obtained by
  # uncommenting the line beginning with "for_aux"  below, thus adding an extra g radial
  # function to the construction of the product basis set for the expansion.
  # See Ref. New J. Phys. 17, 093020 (2015) for more information, particularly Figs. 1 and 6.
  #
  ################################################################################
  #
  # for_aux hydro 5 g 6.0
  
  -----------------------------------------------------------------------
  Completed first pass over input file control.in .
  -----------------------------------------------------------------------
  
  
  -----------------------------------------------------------------------
  Parsing geometry.in (first pass over file, find array dimensions only).
  The contents of geometry.in will be repeated verbatim below
  unless switched off by setting 'verbatim_writeout .false.' .
  in the first line of geometry.in .
  -----------------------------------------------------------------------
  
  #=======================================================
  #FHI-aims file: geometry.in
  #Created using the Atomic Simulation Environment (ASE)
  #=======================================================
  atom 9.6133559999999996 48.4623989999999978 85.3384439999999955 H
  atom 9.3855120000000003 47.4353740000000030 85.0623070000000041 C
  atom 8.7519290000000005 47.1428709999999995 83.8484739999999960 C
  atom 9.7479779999999998 46.4125030000000010 85.9138119999999930 C
  atom 8.5654839999999997 45.8251229999999978 83.4780149999999992 C
  atom 8.4386250000000000 47.9479970000000009 83.1862650000000059 H
  atom 9.4814720000000001 45.0595509999999990 85.6048239999999936 C
  atom 10.2935499999999998 46.6539810000000017 86.8202840000000009 H
  atom 8.1246080000000003 45.6166720000000012 82.5071429999999992 H
  atom 8.9534490000000009 44.7607190000000017 84.3174850000000049 C
  atom 9.7582520000000006 44.0004879999999972 86.5552050000000008 C
  atom 8.9535610000000005 43.3852219999999988 83.8605089999999933 C
  atom 9.7586650000000006 42.6495140000000035 86.1079859999999968 C
  atom 9.9698969999999996 44.3123720000000034 87.9693919999999991 C
  atom 8.5519470000000002 43.0282449999999983 82.5559310000000011 C
  atom 9.4902470000000001 42.3765900000000002 84.7090859999999992 C
  atom 9.9559099999999994 41.5556430000000034 87.0645460000000071 C
  atom 9.4684969999999993 45.4080239999999975 88.7499920000000060 C
  atom 10.4931950000000001 43.2837660000000000 88.7363310000000070 C
  atom 8.0696349999999999 43.7655359999999973 81.9177899999999966 H
  atom 8.7658790000000000 41.7587529999999987 82.0540699999999958 C
  atom 9.7882140000000000 41.1209419999999994 84.1350199999999973 C
  atom 9.4699220000000004 40.1969560000000001 87.0290940000000006 C
  atom 10.4690080000000005 41.9331869999999967 88.2946419999999961 C
  atom 8.9319240000000004 46.2188850000000002 88.2650440000000032 H
  atom 9.4684969999999993 45.4080239999999975 90.1375079999999969 C
  atom 10.4931950000000001 43.2837660000000000 90.1511689999999959 C
  atom 8.4359629999999992 41.5188569999999970 81.0448190000000039 H
  atom 9.4437859999999993 40.8132099999999980 82.8346700000000027 C
  atom 10.3581610000000008 40.4028350000000032 84.7146149999999949 H
  atom 8.9986350000000002 39.8132799999999989 86.1284770000000037 H
  atom 9.4229740000000000 39.3835240000000013 88.1518570000000068 C
  atom 10.4239719999999991 41.1086799999999997 89.4437499999999943 C
  atom 8.9318869999999997 46.2188850000000002 90.6224559999999997 H
  atom 9.9698589999999996 44.3123720000000034 90.9181080000000037 C
  atom 10.4690080000000005 41.9331869999999967 90.5928580000000068 C
  atom 9.7239409999999999 39.8465059999999980 82.4189999999999969 H
  atom 8.9271989999999999 38.4162260000000018 88.0594860000000068 H
  atom 9.8334379999999992 39.8504610000000028 89.4437499999999943 C
  atom 9.7582149999999999 44.0004879999999972 92.3322950000000020 C
  atom 9.9559099999999994 41.5556430000000034 91.8229539999999957 C
  atom 9.4229740000000000 39.3835240000000013 90.7356429999999961 C
  atom 9.4814349999999994 45.0595509999999990 93.2830009999999987 C
  atom 9.7586650000000006 42.6495140000000035 92.7795140000000060 C
  atom 9.4699220000000004 40.1969560000000001 91.8584060000000022 C
  atom 8.9271989999999999 38.4162260000000018 90.8280139999999960 H
  atom 8.9534109999999991 44.7607190000000017 94.5700149999999979 C
  atom 9.7479399999999998 46.4125030000000010 92.9736879999999957 C
  atom 9.4902090000000001 42.3765900000000002 94.1784140000000036 C
  atom 8.9986730000000001 39.8132799999999989 92.7590229999999991 H
  atom 8.5654470000000007 45.8249250000000004 95.4094860000000011 C
  atom 8.9535610000000005 43.3852219999999988 95.0269909999999953 C
  atom 9.3854749999999996 47.4353740000000030 93.8251929999999987 C
  atom 10.2935130000000008 46.6539810000000017 92.0672169999999994 H
  atom 9.7882140000000000 41.1209419999999994 94.7524800000000056 C
  atom 8.1245329999999996 45.6164739999999966 96.3803570000000036 H
  atom 8.7518919999999998 47.1426730000000020 95.0390260000000069 C
  atom 8.5519470000000002 43.0282449999999983 96.3315690000000018 C
  atom 9.6132810000000006 48.4623989999999978 93.5490549999999956 H
  atom 9.4438230000000001 40.8132099999999980 96.0528300000000002 C
  atom 10.3581610000000008 40.4028350000000032 94.1728849999999937 H
  atom 8.4385499999999993 47.9479970000000009 95.7012349999999969 H
  atom 8.0696349999999999 43.7655359999999973 96.9700349999999958 H
  atom 8.7658790000000000 41.7587529999999987 96.8334300000000070 C
  atom 9.7239409999999999 39.8463080000000005 96.4684989999999942 H
  atom 8.4359629999999992 41.5186589999999995 97.8426809999999989 H
  
  -----------------------------------------------------------------------
  Completed first pass over input file geometry.in .
  -----------------------------------------------------------------------
  

  Basic array size parameters:
  | Number of species                 :        2
  | Number of atoms                   :       66
  | Max. basis fn. angular momentum   :        4
  | Max. atomic/ionic basis occupied n:        2
  | Max. number of basis fn. types    :        2
  | Max. radial fns per species/type  :        8
  | Max. logarithmic grid size        :     1277
  | Max. radial integration grid size :       69
  | Max. angular integration grid size:      434
  | Max. angular grid division number :        8
  | Radial grid for Hartree potential :     1277
  | Number of spin channels           :        1

------------------------------------------------------------
          Reading file control.in.
------------------------------------------------------------
  XC: Using PBE gradient-corrected functionals.
  Scalar relativistic treatment of kinetic energy: ZORA.
  Threshold value for ZORA:   0.100000E-11
  Occupation type: Gaussian broadening, width =   0.100000E-03 eV.
  Since 'load_balancing .true.' is present in control.in, automatically turning on 'use_local_index .true.'.
  Using load balancing for integrations.
  Kohn-Sham electronic structure solved by the ELSI library.
  Using pulay charge density mixing.
  Pulay mixing - number of memorized iterations:    5
  Charge density mixing - mixing parameter:     0.4000
  Convergence accuracy of total energy:  0.1000E-05
  Convergence accuracy of sum of eigenvalues:  0.1000E-03
  Convergence accuracy of self-consistent charge density:  0.1000E-05
  Maximum number of s.-c. iterations  :   100
  * Ignoring prodbas_threshold
  Threshold for basis singularities:  0.1000E-04
  override_illconditioning: Explicitly overriding any built-in checks for an ill-conditioned overlap matrix.
  *** WARNING: If you use this flag, you should really know what you are doing.
  *** DO NOT keep this flag set by default in all your control.in files.
  Using 1D integrations for auxiliary 2-center integrals.
  Spin treatment: No spin polarisation.
  Charge =   0.000000E+00: Neutral system requested explicitly.
 
  Reading configuration options for species H                   .
  | Found nuclear charge :   1.0000
  | Found atomic mass :    1.00794000000000      amu
  | Found l_max for Hartree potential  :   6
  | Found cutoff potl. onset [A], width [A], scale factor :    4.00000    2.00000    1.00000
  | Threshold for basis-dependent cutoff potential is   0.100000E-03
  | Found data for basic radial integration grid :    24 points, outermost radius =    7.000 A
  | Found multiplier for basic radial grid :   2
  | Found angular grid specification: user-specified.
  | Specified grid contains     6 separate shells.
  | Check grid settings after all constraints further below.
  | Found free-atom valence shell :  1 s   1.000
  | No ionic wave fns used. Skipping ion_occ.
  | Found hydrogenic basis function :  2 s   2.100
  | Found hydrogenic basis function :  2 p   3.500
  | Found hydrogenic basis function :  1 s   0.850
  | Found hydrogenic basis function :  2 p   3.700
  | Found hydrogenic basis function :  2 s   1.200
  | Found hydrogenic basis function :  3 d   7.000
  Species H                   : Missing cutoff potential type.
  Defaulting to exp(1/x)/(1-x)^2 type cutoff potential.
  Species H : No 'logarithmic' tag. Using default grid for free atom:
  | Default logarithmic grid data [bohr] : 0.1000E-03 0.1000E+03 0.1012E+01
  Species H : On-site basis accuracy parameter (for Gram-Schmidt orthonormalisation) not specified.
  Using default value basis_acc =  0.1000000E-03.
  Species H                   : Using default innermost maximum threshold i_radial=  2 for radial functions.
  Species H                   : Default cutoff onset for free atom density etc. : 0.40000000E+01 AA.
  Species H                   : Basic radial grid will be enhanced according to radial_multiplier =   2, to contain    49 grid points.
 
  Reading configuration options for species C                   .
  | Found nuclear charge :   6.0000
  | Found atomic mass :    12.0107000000000      amu
  | Found l_max for Hartree potential  :   6
  | Found cutoff potl. onset [A], width [A], scale factor :    4.00000    2.00000    1.00000
  | Threshold for basis-dependent cutoff potential is   0.100000E-03
  | Found data for basic radial integration grid :    34 points, outermost radius =    7.000 A
  | Found multiplier for basic radial grid :   2
  | Found angular grid specification: user-specified.
  | Specified grid contains     6 separate shells.
  | Check grid settings after all constraints further below.
  | Found free-atom valence shell :  2 s   2.000
  | Found free-atom valence shell :  2 p   2.000
  | No ionic wave fns used. Skipping ion_occ.
  | No ionic wave fns used. Skipping ion_occ.
  | Found hydrogenic basis function :  2 p   1.700
  | Found hydrogenic basis function :  3 d   6.000
  | Found hydrogenic basis function :  2 s   4.900
  | Found hydrogenic basis function :  4 f   9.800
  | Found hydrogenic basis function :  3 p   5.200
  | Found hydrogenic basis function :  3 s   4.300
  | Found hydrogenic basis function :  5 g  14.400
  | Found hydrogenic basis function :  3 d   6.200
  Species C                   : Missing cutoff potential type.
  Defaulting to exp(1/x)/(1-x)^2 type cutoff potential.
  Species C : No 'logarithmic' tag. Using default grid for free atom:
  | Default logarithmic grid data [bohr] : 0.1000E-03 0.1000E+03 0.1012E+01
  Species C : On-site basis accuracy parameter (for Gram-Schmidt orthonormalisation) not specified.
  Using default value basis_acc =  0.1000000E-03.
  Species C                   : Using default innermost maximum threshold i_radial=  2 for radial functions.
  Species C                   : Default cutoff onset for free atom density etc. : 0.40000000E+01 AA.
  Species C                   : Basic radial grid will be enhanced according to radial_multiplier =   2, to contain    69 grid points.
 
  Finished reading input file 'control.in'. Consistency checks are next.
 
  MPI_IN_PLACE appears to work with this MPI implementation.
  | Keeping use_mpi_in_place .true. (see manual).
  Target number of points in a grid batch is not set. Defaulting to  100
  Method for grid partitioning is not set. Defaulting to parallel hash+maxmin partitioning.
  Batch size limit is not set. Defaulting to    200
  By default, will store active basis functions for each batch.
  If in need of memory, prune_basis_once .false. can be used to disable this option.
  communication_type for Hartree potential was not specified.
  Defaulting to calc_hartree .
  Pulay mixer: Number of initial linear mixing iterations not set.
  Defaulting to    0 iterations.
  Work space size for distributed Hartree potential not set.
  Defaulting to   0.200000E+03 MB.
  Algorithm-dependent basis array size parameters:
  | n_max_pulay                         :        5
  Presetting      1001 iterations before the initial mixing cycle
  is restarted anyway using the sc_init_iter criterion / keyword.
  Presetting a factor      1.000 between actual scf density residual
  and density convergence criterion sc_accuracy_rho below which sc_init_iter
  takes no effect.
  Calculation of forces was not defined in control.in. No forces will be calculated.
  Geometry relaxation not requested: no relaxation will be performed.
  No accuracy limit for integral partition fn. given. Defaulting to  0.1000E-14.
  No threshold value for u(r) in integrations given. Defaulting to  0.1000E-05.
  No accuracy for occupation numbers given. Defaulting to  0.1000E-12.
  No threshold value for occupation numbers given. Defaulting to  0.0000E+00.
  No accuracy for fermi level given. Defaulting to  0.1000E-19.
  Maximum # of iterations to find E_F not set. Defaulting to  200.
  Will not use alltoall communication since running on < 1024 CPUs.
  partition_type (choice of integration weights) for integrals was not specified.
  | Using a version of the partition function of Stratmann and coworkers ('stratmann_sparse').
  | At each grid point, the set of atoms used to build the partition table is smoothly restricted to
  | only those atoms whose free-atom density would be non-zero at that grid point.
  Partitioning for Hartree potential was not defined. Using partition_type for integrals.
  | Adjusted default value of keyword multip_moments_threshold to:       0.10000000E-11
  | This value may affect high angular momentum components of the Hartree potential in periodic systems.
  No q(lm)/r^(l+1) cutoff set for long-range Hartree potential.
  | Using default value of  0.100000E-09 .
  | Verify using the multipole_threshold keyword.
  Defaulting to new monopole extrapolation.
  Density update method: automatic selection selected.
 * Warning: use_local_index and/or load_balancing needs packed_matrix_format = index
 * Changing the default setting to packed_matrix_format = index
------------------------------------------------------------


------------------------------------------------------------
          Reading geometry description geometry.in.
------------------------------------------------------------
  Input structure read successfully.
  The structure contains       66 atoms,  and a total of        286.000 electrons.

  Input geometry:
  | No unit cell requested.
  | Atomic structure:
  |       Atom                x [A]            y [A]            z [A]
  |    1: Species H             9.61335600       48.46239900       85.33844400
  |    2: Species C             9.38551200       47.43537400       85.06230700
  |    3: Species C             8.75192900       47.14287100       83.84847400
  |    4: Species C             9.74797800       46.41250300       85.91381200
  |    5: Species C             8.56548400       45.82512300       83.47801500
  |    6: Species H             8.43862500       47.94799700       83.18626500
  |    7: Species C             9.48147200       45.05955100       85.60482400
  |    8: Species H            10.29355000       46.65398100       86.82028400
  |    9: Species H             8.12460800       45.61667200       82.50714300
  |   10: Species C             8.95344900       44.76071900       84.31748500
  |   11: Species C             9.75825200       44.00048800       86.55520500
  |   12: Species C             8.95356100       43.38522200       83.86050900
  |   13: Species C             9.75866500       42.64951400       86.10798600
  |   14: Species C             9.96989700       44.31237200       87.96939200
  |   15: Species C             8.55194700       43.02824500       82.55593100
  |   16: Species C             9.49024700       42.37659000       84.70908600
  |   17: Species C             9.95591000       41.55564300       87.06454600
  |   18: Species C             9.46849700       45.40802400       88.74999200
  |   19: Species C            10.49319500       43.28376600       88.73633100
  |   20: Species H             8.06963500       43.76553600       81.91779000
  |   21: Species C             8.76587900       41.75875300       82.05407000
  |   22: Species C             9.78821400       41.12094200       84.13502000
  |   23: Species C             9.46992200       40.19695600       87.02909400
  |   24: Species C            10.46900800       41.93318700       88.29464200
  |   25: Species H             8.93192400       46.21888500       88.26504400
  |   26: Species C             9.46849700       45.40802400       90.13750800
  |   27: Species C            10.49319500       43.28376600       90.15116900
  |   28: Species H             8.43596300       41.51885700       81.04481900
  |   29: Species C             9.44378600       40.81321000       82.83467000
  |   30: Species H            10.35816100       40.40283500       84.71461500
  |   31: Species H             8.99863500       39.81328000       86.12847700
  |   32: Species C             9.42297400       39.38352400       88.15185700
  |   33: Species C            10.42397200       41.10868000       89.44375000
  |   34: Species H             8.93188700       46.21888500       90.62245600
  |   35: Species C             9.96985900       44.31237200       90.91810800
  |   36: Species C            10.46900800       41.93318700       90.59285800
  |   37: Species H             9.72394100       39.84650600       82.41900000
  |   38: Species H             8.92719900       38.41622600       88.05948600
  |   39: Species C             9.83343800       39.85046100       89.44375000
  |   40: Species C             9.75821500       44.00048800       92.33229500
  |   41: Species C             9.95591000       41.55564300       91.82295400
  |   42: Species C             9.42297400       39.38352400       90.73564300
  |   43: Species C             9.48143500       45.05955100       93.28300100
  |   44: Species C             9.75866500       42.64951400       92.77951400
  |   45: Species C             9.46992200       40.19695600       91.85840600
  |   46: Species H             8.92719900       38.41622600       90.82801400
  |   47: Species C             8.95341100       44.76071900       94.57001500
  |   48: Species C             9.74794000       46.41250300       92.97368800
  |   49: Species C             9.49020900       42.37659000       94.17841400
  |   50: Species H             8.99867300       39.81328000       92.75902300
  |   51: Species C             8.56544700       45.82492500       95.40948600
  |   52: Species C             8.95356100       43.38522200       95.02699100
  |   53: Species C             9.38547500       47.43537400       93.82519300
  |   54: Species H            10.29351300       46.65398100       92.06721700
  |   55: Species C             9.78821400       41.12094200       94.75248000
  |   56: Species H             8.12453300       45.61647400       96.38035700
  |   57: Species C             8.75189200       47.14267300       95.03902600
  |   58: Species C             8.55194700       43.02824500       96.33156900
  |   59: Species H             9.61328100       48.46239900       93.54905500
  |   60: Species C             9.44382300       40.81321000       96.05283000
  |   61: Species H            10.35816100       40.40283500       94.17288500
  |   62: Species H             8.43855000       47.94799700       95.70123500
  |   63: Species H             8.06963500       43.76553600       96.97003500
  |   64: Species C             8.76587900       41.75875300       96.83343000
  |   65: Species H             9.72394100       39.84630800       96.46849900
  |   66: Species H             8.43596300       41.51865900       97.84268100
  |

  | The smallest distance between any two atoms is         1.08464170 AA.
  |
  | The first atom of this pair is atom number                     22 .
  | The second atom of this pair is atom number                    30 .

  Number of empty states per atom not set in control.in - providing a guess from actual geometry.
  | Total number of empty states used during s.c.f. cycle:      165
  If you use a very high smearing, use empty_states (per atom!) in control.in to increase this value.

  Structure-dependent array size parameters: 
  | Maximum number of distinct radial functions  :       18
  | Maximum number of basis functions            :     2046
  | Number of Kohn-Sham states (occupied + empty):      308
------------------------------------------------------------

------------------------------------------------------------
          Preparing all fixed parts of the calculation.
------------------------------------------------------------
  Determining machine precision:
    2.225073858507201E-308
  Setting up grids for atomic and cluster calculations.

  Creating wave function, potential, and density for free atoms.

  Species: H

  List of occupied orbitals and eigenvalues:
    n    l              occ      energy [Ha]    energy [eV]
    1    0           1.0000        -0.238386        -6.4868


  Species: C

  List of occupied orbitals and eigenvalues:
    n    l              occ      energy [Ha]    energy [eV]
    1    0           2.0000       -10.049212      -273.4530
    2    0           2.0000        -0.504761       -13.7352
    2    1           2.0000        -0.193631        -5.2690

  Creating fixed part of basis set: Ionic, confined, hydrogenic.
 
  H                    hydrogenic:
 
  List of hydrogenic basis orbitals: 
    n    l      effective z      eigenvalue [eV]  inner max. [A]     outer max. [A]     outer radius [A]   
    2    0         2.100000       -14.9965           0.193243           1.317208           5.373006
    2    1         3.500000       -41.6672           0.602369           0.602369           4.056063
    1    0         0.850000        -9.8292           0.624871           0.624871           5.373006
    2    1         3.700000       -46.5653           0.573622           0.573622           3.910002
    2    0         1.200000        -4.5995           0.334980           2.228188           5.505995
    3    2         7.000000       -74.0753           0.680699           0.680699           3.769201
 
 
  C                    hydrogenic:
 
  List of hydrogenic basis orbitals: 
    n    l      effective z      eigenvalue [eV]  inner max. [A]     outer max. [A]     outer radius [A]   
    2    1         1.700000        -9.8152           1.245706           1.245706           5.401630
    3    2         6.000000       -54.4226           0.792453           0.792453           4.178599
    2    0         4.900000       -81.6681           0.082559           0.562749           3.353238
    4    3         9.800000       -81.6681           0.863254           0.863254           4.028125
    3    1         5.200000       -40.8774           0.305389           1.215618           4.898362
    3    0         4.300000       -27.9508           0.091041           1.610311           5.401630
    5    4        14.400000      -112.8510           0.917666           0.917666           3.883070
    3    2         6.200000       -58.1113           0.763917           0.763917           4.077671
 

  Adding cutoff potential to free-atom effective potential.
  Creating atomic-like basis functions for current effective potential.

  Species H                   :

  List of atomic basis orbitals and eigenvalues:
    n    l      energy [Ha]    energy [eV]    outer radius [A]
    1    0        -0.238386        -6.4868       5.373006


  Species C                   :

  List of atomic basis orbitals and eigenvalues:
    n    l      energy [Ha]    energy [eV]    outer radius [A]
    1    0       -10.049212      -273.4530       1.934409
    2    0        -0.504761       -13.7352       5.271162
    2    1        -0.193631        -5.2690       5.401630

  Assembling full basis from fixed parts.
  | Species H :   atomic orbital   1 s accepted.
  | Species H :    hydro orbital   2 s accepted.
  | Species H :    hydro orbital   1 s accepted.
  | Species H :    hydro orbital   2 s accepted.
  | Species H :    hydro orbital   2 p accepted.
  | Species H :    hydro orbital   2 p accepted.
  | Species H :    hydro orbital   3 d accepted.
  | Species C :   atomic orbital   1 s accepted.
  | Species C :    hydro orbital   2 s accepted.
  | Species C :   atomic orbital   2 s accepted.
  | Species C :    hydro orbital   3 s accepted.
  | Species C :    hydro orbital   3 p accepted.
  | Species C :   atomic orbital   2 p accepted.
  | Species C :    hydro orbital   2 p accepted.
  | Species C :    hydro orbital   3 d accepted.
  | Species C :    hydro orbital   3 d accepted.
  | Species C :    hydro orbital   4 f accepted.
  | Species C :    hydro orbital   5 g accepted.
 
  Basis size parameters after reduction:
  | Total number of radial functions:       18
  | Total number of basis functions :     2046
 
  Per-task memory consumption for arrays in subroutine allocate_ext:
  |           4.460656MB.
  Testing on-site integration grid accuracy.
  |  Species  Function  <phi|h_atom|phi> (log., in eV)  <phi|h_atom|phi> (rad., in eV)
           1        1                 -6.4870767962                 -6.4871688290
           1        2                 13.5032046589                 13.5028982997
           1        3                 32.8195184817                 32.8119941656
           1        4                 33.8513856511                 33.7670005767 ***
           1        5                 28.8544614965                 28.8544615203
           1        6                 59.6326952547                 59.6327656460
           1        7                 60.2719308513                 60.2719305949
           2        8               -273.4529726040               -273.4529710464
           2        9                -10.7721037319                -10.7721022101
           2       10                 17.6044132601                 17.6044162063
           2       11                 53.7706460658                 53.7706913770
           2       12                 15.0973290362                 15.0973256030
           2       13                  3.8545134692                  3.8545724687
           2       14                 12.1156992592                 12.1182024431
           2       15                 29.4352039302                 29.4352041816
           2       16                 54.8741144708                 54.8740268729
           2       17                 59.3556032049                 59.3556031382
           2       18                 93.4551837154                 93.4551838009
 * Note: Onsite integrals marked "***" above are less accurate than
 * onsite_accuracy_threshold =    0.03000 eV. Usually, this is harmless.
 * When in doubt, tighten the "radial" and/or "radial_multiplier" flags to check.

  Preparing densities etc. for the partition functions (integrals / Hartree potential).

  Preparations completed.
  max(cpu_time)          :      0.180 s.
  Wall clock time (cpu1) :      0.167 s.
------------------------------------------------------------

------------------------------------------------------------
          Begin self-consistency loop: Initialization.

          Date     :  20210809, Time     :  125250.525
------------------------------------------------------------

  Initializing index lists of integration centers etc. from given atomic structure:
  | Number of centers in hartree potential         :        66
  | Number of centers in hartree multipole         :        66
  | Number of centers in electron density summation:        66
  | Number of centers in basis integrals           :        66
  | Number of centers in integrals                 :        66
  | Number of centers in hamiltonian               :        66
  * Using 56 tasks for Scalapack Eigenvalue solver.
  Detailed listing of tasks and assigned k-points:
  (for non-periodic systems, the "k-point" denotes an internal label only)
   Task     0 k-point     1 on e002
   Task     1 k-point     1 on e002
   Task     2 k-point     1 on e002
   Task     3 k-point     1 on e002
   Task     4 k-point     1 on e002
   Task     5 k-point     1 on e002
   Task     6 k-point     1 on e002
   Task     7 k-point     1 on e002
   Task     8 k-point     1 on e002
   Task     9 k-point     1 on e002
   Task    10 k-point     1 on e002
   Task    11 k-point     1 on e002
   Task    12 k-point     1 on e002
   Task    13 k-point     1 on e002
   Task    14 k-point     1 on e002
   Task    15 k-point     1 on e002
   Task    16 k-point     1 on e002
   Task    17 k-point     1 on e002
   Task    18 k-point     1 on e002
   Task    19 k-point     1 on e002
   Task    20 k-point     1 on e002
   Task    21 k-point     1 on e002
   Task    22 k-point     1 on e002
   Task    23 k-point     1 on e002
   Task    24 k-point     1 on e002
   Task    25 k-point     1 on e002
   Task    26 k-point     1 on e002
   Task    27 k-point     1 on e002
   Task    28 k-point     1 on e002
   Task    29 k-point     1 on e002
   Task    30 k-point     1 on e002
   Task    31 k-point     1 on e002
   Task    32 k-point     1 on e002
   Task    33 k-point     1 on e002
   Task    34 k-point     1 on e002
   Task    35 k-point     1 on e002
   Task    36 k-point     1 on e002
   Task    37 k-point     1 on e002
   Task    38 k-point     1 on e002
   Task    39 k-point     1 on e002
   Task    40 k-point     1 on e002
   Task    41 k-point     1 on e002
   Task    42 k-point     1 on e002
   Task    43 k-point     1 on e002
   Task    44 k-point     1 on e002
   Task    45 k-point     1 on e002
   Task    46 k-point     1 on e002
   Task    47 k-point     1 on e002
   Task    48 k-point     1 on e002
   Task    49 k-point     1 on e002
   Task    50 k-point     1 on e002
   Task    51 k-point     1 on e002
   Task    52 k-point     1 on e002
   Task    53 k-point     1 on e002
   Task    54 k-point     1 on e002
   Task    55 k-point     1 on e002
  Tasks:    56 split into      8 X      7 BLACS grid
  Calculating block size based on n_basis =         2046 max_nprow =            8 max_npcol =            7
  ScaLAPACK block size set to:           16
  Allocating        0.623 MB for ovlp
  Allocating        0.623 MB for ham
  Allocating        0.623 MB for eigenvec
  Required Scalapack workspace - INTEGER:            1 REAL:             1
  Partitioning the integration grid into batches with parallel hashing+maxmin method.
  | Number of batches:    10496
  | Maximal batch size:     198
  | Minimal batch size:      19
  | Average batch size:     106.072
  | Standard deviation of batch sizes:      36.041

  Integration load balanced across     56 MPI tasks.
  Work distribution over tasks is as follows:
  Task      0 has      19997 integration points.
  Task      1 has      19966 integration points.
  Task      2 has      19785 integration points.
  Task      3 has      19926 integration points.
  Task      4 has      19884 integration points.
  Task      5 has      19935 integration points.
  Task      6 has      19749 integration points.
  Task      7 has      19995 integration points.
  Task      8 has      19889 integration points.
  Task      9 has      19849 integration points.
  Task     10 has      19902 integration points.
  Task     11 has      19870 integration points.
  Task     12 has      19839 integration points.
  Task     13 has      19823 integration points.
  Task     14 has      19936 integration points.
  Task     15 has      19925 integration points.
  Task     16 has      19854 integration points.
  Task     17 has      19928 integration points.
  Task     18 has      19855 integration points.
  Task     19 has      19867 integration points.
  Task     20 has      19796 integration points.
  Task     21 has      19899 integration points.
  Task     22 has      19975 integration points.
  Task     23 has      19815 integration points.
  Task     24 has      19913 integration points.
  Task     25 has      19880 integration points.
  Task     26 has      19879 integration points.
  Task     27 has      19767 integration points.
  Task     28 has      20046 integration points.
  Task     29 has      19874 integration points.
  Task     30 has      19826 integration points.
  Task     31 has      19966 integration points.
  Task     32 has      19841 integration points.
  Task     33 has      19946 integration points.
  Task     34 has      19779 integration points.
  Task     35 has      19912 integration points.
  Task     36 has      19929 integration points.
  Task     37 has      19843 integration points.
  Task     38 has      19957 integration points.
  Task     39 has      19868 integration points.
  Task     40 has      19890 integration points.
  Task     41 has      19689 integration points.
  Task     42 has      19936 integration points.
  Task     43 has      19881 integration points.
  Task     44 has      19868 integration points.
  Task     45 has      19935 integration points.
  Task     46 has      19807 integration points.
  Task     47 has      19894 integration points.
  Task     48 has      19825 integration points.
  Task     49 has      19937 integration points.
  Task     50 has      19896 integration points.
  Task     51 has      19791 integration points.
  Task     52 has      19923 integration points.
  Task     53 has      19832 integration points.
  Task     54 has      19964 integration points.
  Task     55 has      19779 integration points.
  Initializing partition tables, free-atom densities, potentials, etc. across the integration grid (initialize_grid_storage).
  | initialize_grid_storage: Actual outermost partition radius vs. multipole_radius_free
  | (-- VB: in principle, multipole_radius_free should be larger, hence this output)
  | Species        1: Confinement radius =              6.000000000000000 AA, multipole_radius_free =              6.071692442739658 AA.
  | Species        1: outer_partition_radius set to              6.071692442739658 AA .
  | Species        2: Confinement radius =              6.000000000000000 AA, multipole_radius_free =              6.029870734432609 AA.
  | Species        2: outer_partition_radius set to              6.029870734432609 AA .
  | The sparse table of interatomic distances needs     51.0040 kbyte instead of    34.8480 kbyte of memory.
  | Using the partition_type stratmann_smoother will reduce your memory usage.
  | Net number of integration points:  1113332
  | of which are non-zero points    :   881841
  Renormalizing the initial density to the exact electron count on the 3D integration grid.
  | Initial density: Formal number of electrons (from input files) :     286.0000000000
  | Integrated number of electrons on 3D grid     :     285.9997250832
  | Charge integration error                      :      -0.0002749168
  | Normalization factor for density and gradient :       1.0000009612
  Obtaining max. number of non-zero basis functions in each batch (get_n_compute_maxes).
  | Maximal number of non-zero basis functions:     1049
  Selecting the method for density update.
  Loop over occupied states selected for charge density update.
  Hamiltonian matrix size:
  | Size of matrix non-packed:               2094081
  | Size of matrix packed:         1590733
  Allocating        5.041 MB for KS_eigenvector
  use_local_index: Max. local matrix size =      1063403
  Task:     0 matrix size:     203711
  Task:     1 matrix size:     158196
  Task:     2 matrix size:     331485
  Task:     3 matrix size:     518592
  Task:     4 matrix size:     544934
  Task:     5 matrix size:     991782
  Task:     6 matrix size:    1003729
  Task:     7 matrix size:     237670
  Task:     8 matrix size:     336482
  Task:     9 matrix size:     558116
  Task:    10 matrix size:     691972
  Task:    11 matrix size:     646237
  Task:    12 matrix size:     956341
  Task:    13 matrix size:     903878
  Task:    14 matrix size:     307057
  Task:    15 matrix size:     254267
  Task:    16 matrix size:     137550
  Task:    17 matrix size:    1049966
  Task:    18 matrix size:    1063403
  Task:    19 matrix size:     530248
  Task:    20 matrix size:     320965
  Task:    21 matrix size:     538097
  Task:    22 matrix size:     300061
  Task:    23 matrix size:     365638
  Task:    24 matrix size:    1033733
  Task:    25 matrix size:     992130
  Task:    26 matrix size:     618295
  Task:    27 matrix size:     393114
  Task:    28 matrix size:     342810
  Task:    29 matrix size:     937642
  Task:    30 matrix size:     962075
  Task:    31 matrix size:     388639
  Task:    32 matrix size:     562059
  Task:    33 matrix size:     150426
  Task:    34 matrix size:     194360
  Task:    35 matrix size:     426866
  Task:    36 matrix size:     840192
  Task:    37 matrix size:     799076
  Task:    38 matrix size:     476216
  Task:    39 matrix size:     721804
  Task:    40 matrix size:     213431
  Task:    41 matrix size:     387854
  Task:    42 matrix size:    1050817
  Task:    43 matrix size:     749543
  Task:    44 matrix size:     404887
  Task:    45 matrix size:     417280
  Task:    46 matrix size:     239851
  Task:    47 matrix size:     244634
  Task:    48 matrix size:     165475
  Task:    49 matrix size:     929464
  Task:    50 matrix size:     745244
  Task:    51 matrix size:     505827
  Task:    52 matrix size:     633477
  Task:    53 matrix size:     469439
  Task:    54 matrix size:     257735
  Task:    55 matrix size:     226128
  Integrating Hamiltonian matrix: batch-based integration.
  Time summed over all CPUs for integration: real work      233.371 s, elapsed      445.411 s
  Time get_set_sparse_local_matrix_scalapack:     0.021146 s
  Start compute_balanced_batch_distribution
  Done load balancing, time needed:      0.011 s
  Integrating overlap matrix with loadbalancing
  Time summed over all CPUs for integration: real work       69.035 s, elapsed       79.302 s
  Time get_set_full_local_matrix_scalapack:     0.024921 s

  Updating Kohn-Sham eigenvalues and eigenvectors using ELSI and the ELPA eigensolver.
  Overlap matrix is not singular
  | Lowest and highest eigenvalues :  0.12E+02,  0.87E-04
  Finished singularity check of overlap matrix
  | Time :     0.146 s
  Finished Cholesky decomposition
  | Time :     0.034 s
  Finished transformation to standard eigenproblem
  | Time :     0.033 s
  Starting ELPA eigensolver
  Finished solving standard eigenproblem
  | Time :     0.172 s
  Finished back-transformation of eigenvectors
  | Time :     0.008 s

  Obtaining occupation numbers and chemical potential using ELSI.
  | Chemical potential (Fermi level):    -7.87835870 eV
  Writing Kohn-Sham eigenvalues.

  State    Occupation    Eigenvalue [Ha]    Eigenvalue [eV]
      1       2.00000         -10.174004         -276.84872
      2       2.00000         -10.173741         -276.84158
      3       2.00000         -10.173622         -276.83834
      4       2.00000         -10.173344         -276.83077
      5       2.00000         -10.173269         -276.82873
      6       2.00000         -10.171295         -276.77502
      7       2.00000         -10.171288         -276.77482
      8       2.00000         -10.170926         -276.76497
      9       2.00000         -10.170909         -276.76451
     10       2.00000         -10.170703         -276.75890
     11       2.00000         -10.170683         -276.75837
     12       2.00000         -10.170508         -276.75359
     13       2.00000         -10.170499         -276.75336
     14       2.00000         -10.170284         -276.74752
     15       2.00000         -10.170275         -276.74726
     16       2.00000         -10.170249         -276.74656
     17       2.00000         -10.170243         -276.74638
     18       2.00000         -10.169906         -276.73722
     19       2.00000         -10.169890         -276.73679
     20       2.00000         -10.169579         -276.72833
     21       2.00000         -10.169556         -276.72769
     22       2.00000         -10.165942         -276.62935
     23       2.00000         -10.165896         -276.62810
     24       2.00000         -10.165515         -276.61772
     25       2.00000         -10.165009         -276.60396
     26       2.00000         -10.164975         -276.60304
     27       2.00000         -10.164508         -276.59033
     28       2.00000         -10.164500         -276.59012
     29       2.00000         -10.162987         -276.54894
     30       2.00000         -10.162943         -276.54775
     31       2.00000         -10.162882         -276.54609
     32       2.00000         -10.162880         -276.54604
     33       2.00000         -10.162718         -276.54162
     34       2.00000         -10.162704         -276.54125
     35       2.00000         -10.162355         -276.53176
     36       2.00000         -10.162349         -276.53159
     37       2.00000         -10.162321         -276.53081
     38       2.00000         -10.162316         -276.53070
     39       2.00000         -10.161542         -276.50963
     40       2.00000         -10.161542         -276.50963
     41       2.00000         -10.155776         -276.35272
     42       2.00000         -10.155752         -276.35208
     43       2.00000         -10.155224         -276.33770
     44       2.00000         -10.155220         -276.33761
     45       2.00000          -1.052245          -28.63305
     46       2.00000          -1.010319          -27.49217
     47       2.00000          -1.007418          -27.41323
     48       2.00000          -0.988509          -26.89870
     49       2.00000          -0.983526          -26.76310
     50       2.00000          -0.981527          -26.70872
     51       2.00000          -0.979412          -26.65117
     52       2.00000          -0.947397          -25.78000
     53       2.00000          -0.936184          -25.47486
     54       2.00000          -0.935411          -25.45384
     55       2.00000          -0.916431          -24.93736
     56       2.00000          -0.912457          -24.82922
     57       2.00000          -0.900850          -24.51339
     58       2.00000          -0.895375          -24.36441
     59       2.00000          -0.889315          -24.19948
     60       2.00000          -0.882098          -24.00312
     61       2.00000          -0.864965          -23.53689
     62       2.00000          -0.863599          -23.49973
     63       2.00000          -0.857527          -23.33448
     64       2.00000          -0.854310          -23.24695
     65       2.00000          -0.851174          -23.16162
     66       2.00000          -0.843575          -22.95484
     67       2.00000          -0.792771          -21.57239
     68       2.00000          -0.784884          -21.35778
     69       2.00000          -0.783531          -21.32096
     70       2.00000          -0.771940          -21.00555
     71       2.00000          -0.769309          -20.93397
     72       2.00000          -0.758374          -20.63641
     73       2.00000          -0.751508          -20.44958
     74       2.00000          -0.751381          -20.44611
     75       2.00000          -0.738425          -20.09356
     76       2.00000          -0.731648          -19.90915
     77       2.00000          -0.726399          -19.76633
     78       2.00000          -0.716658          -19.50127
     79       2.00000          -0.707940          -19.26402
     80       2.00000          -0.687687          -18.71293
     81       2.00000          -0.675962          -18.39386
     82       2.00000          -0.674411          -18.35164
     83       2.00000          -0.665623          -18.11253
     84       2.00000          -0.659798          -17.95401
     85       2.00000          -0.655113          -17.82653
     86       2.00000          -0.651523          -17.72885
     87       2.00000          -0.645055          -17.55283
     88       2.00000          -0.639581          -17.40388
     89       2.00000          -0.632753          -17.21808
     90       2.00000          -0.621826          -16.92075
     91       2.00000          -0.621782          -16.91955
     92       2.00000          -0.610718          -16.61849
     93       2.00000          -0.605112          -16.46594
     94       2.00000          -0.600828          -16.34936
     95       2.00000          -0.599980          -16.32630
     96       2.00000          -0.595807          -16.21273
     97       2.00000          -0.590733          -16.07465
     98       2.00000          -0.584668          -15.90963
     99       2.00000          -0.576943          -15.69943
    100       2.00000          -0.575767          -15.66741
    101       2.00000          -0.575347          -15.65599
    102       2.00000          -0.573694          -15.61102
    103       2.00000          -0.571438          -15.54963
    104       2.00000          -0.569372          -15.49339
    105       2.00000          -0.567967          -15.45518
    106       2.00000          -0.558305          -15.19224
    107       2.00000          -0.555103          -15.10512
    108       2.00000          -0.554657          -15.09297
    109       2.00000          -0.552573          -15.03627
    110       2.00000          -0.541520          -14.73551
    111       2.00000          -0.531317          -14.45786
    112       2.00000          -0.530014          -14.42242
    113       2.00000          -0.526670          -14.33142
    114       2.00000          -0.521078          -14.17926
    115       2.00000          -0.518314          -14.10403
    116       2.00000          -0.517121          -14.07157
    117       2.00000          -0.511011          -13.90530
    118       2.00000          -0.507492          -13.80956
    119       2.00000          -0.501529          -13.64730
    120       2.00000          -0.499725          -13.59820
    121       2.00000          -0.496157          -13.50113
    122       2.00000          -0.495240          -13.47618
    123       2.00000          -0.492594          -13.40416
    124       2.00000          -0.491906          -13.38544
    125       2.00000          -0.486793          -13.24632
    126       2.00000          -0.482544          -13.13068
    127       2.00000          -0.479552          -13.04928
    128       2.00000          -0.479490          -13.04759
    129       2.00000          -0.453322          -12.33552
    130       2.00000          -0.444041          -12.08296
    131       2.00000          -0.441579          -12.01598
    132       2.00000          -0.428328          -11.65541
    133       2.00000          -0.426943          -11.61771
    134       2.00000          -0.415255          -11.29966
    135       2.00000          -0.410302          -11.16489
    136       2.00000          -0.403995          -10.99326
    137       2.00000          -0.397368          -10.81293
    138       2.00000          -0.378958          -10.31197
    139       2.00000          -0.376639          -10.24886
    140       2.00000          -0.371755          -10.11597
    141       2.00000          -0.366717           -9.97887
    142       2.00000          -0.359730           -9.78876
    143       2.00000          -0.356756           -9.70782
    144       0.00000          -0.262267           -7.13664
    145       0.00000          -0.261074           -7.10420
    146       0.00000          -0.238566           -6.49170
    147       0.00000          -0.235800           -6.41645
    148       0.00000          -0.234415           -6.37875
    149       0.00000          -0.225458           -6.13501
    150       0.00000          -0.210894           -5.73873
    151       0.00000          -0.203419           -5.53531
    152       0.00000          -0.189043           -5.14411
    153       0.00000          -0.186304           -5.06958
    154       0.00000          -0.177609           -4.83300
    155       0.00000          -0.175220           -4.76798
    156       0.00000          -0.170292           -4.63389
    157       0.00000          -0.151192           -4.11414
    158       0.00000          -0.120277           -3.27290
    159       0.00000          -0.114872           -3.12582
    160       0.00000          -0.084738           -2.30585
    161       0.00000          -0.084485           -2.29894
    162       0.00000          -0.071432           -1.94377
    163       0.00000          -0.070485           -1.91798
    164       0.00000          -0.069728           -1.89741
    165       0.00000          -0.064392           -1.75220
    166       0.00000          -0.060491           -1.64605
    167       0.00000          -0.057440           -1.56302
    168       0.00000          -0.053318           -1.45086
    169       0.00000          -0.049218           -1.33928
    170       0.00000          -0.046401           -1.26262
    171       0.00000          -0.045069           -1.22638
    172       0.00000          -0.040449           -1.10067
    173       0.00000          -0.029911           -0.81392
    174       0.00000          -0.026260           -0.71458
    175       0.00000          -0.024536           -0.66767
    176       0.00000          -0.023713           -0.64525
    177       0.00000          -0.022193           -0.60390
    178       0.00000          -0.019302           -0.52524
    179       0.00000          -0.016827           -0.45789
    180       0.00000          -0.012478           -0.33954
    181       0.00000          -0.012407           -0.33761
    182       0.00000          -0.010310           -0.28055
    183       0.00000          -0.007692           -0.20931
    184       0.00000          -0.004111           -0.11186
    185       0.00000          -0.003004           -0.08174
    186       0.00000           0.000147            0.00399
    187       0.00000           0.001399            0.03806
    188       0.00000           0.004224            0.11494
    189       0.00000           0.010912            0.29692
    190       0.00000           0.012174            0.33127
    191       0.00000           0.014946            0.40669
    192       0.00000           0.015063            0.40989
    193       0.00000           0.020808            0.56623
    194       0.00000           0.021370            0.58151
    195       0.00000           0.024938            0.67860
    196       0.00000           0.025900            0.70478
    197       0.00000           0.028187            0.76701
    198       0.00000           0.029709            0.80843
    199       0.00000           0.031815            0.86573
    200       0.00000           0.033692            0.91682
    201       0.00000           0.037896            1.03120
    202       0.00000           0.041682            1.13423
    203       0.00000           0.045245            1.23119
    204       0.00000           0.048295            1.31418
    205       0.00000           0.049967            1.35966
    206       0.00000           0.050569            1.37604
    207       0.00000           0.053763            1.46296
    208       0.00000           0.054158            1.47372
    209       0.00000           0.056158            1.52814
    210       0.00000           0.061118            1.66310
    211       0.00000           0.062041            1.68822
    212       0.00000           0.063728            1.73414
    213       0.00000           0.064462            1.75410
    214       0.00000           0.065773            1.78976
    215       0.00000           0.068189            1.85552
    216       0.00000           0.070466            1.91749
    217       0.00000           0.071419            1.94341
    218       0.00000           0.073545            2.00126
    219       0.00000           0.076330            2.07705
    220       0.00000           0.077636            2.11257
    221       0.00000           0.078864            2.14599
    222       0.00000           0.082533            2.24584
    223       0.00000           0.084485            2.29896
    224       0.00000           0.086577            2.35588
    225       0.00000           0.087592            2.38349
    226       0.00000           0.089536            2.43640
    227       0.00000           0.090791            2.47054
    228       0.00000           0.094756            2.57843
    229       0.00000           0.097605            2.65597
    230       0.00000           0.099552            2.70895
    231       0.00000           0.104832            2.85263
    232       0.00000           0.105460            2.86970
    233       0.00000           0.108132            2.94243
    234       0.00000           0.108645            2.95639
    235       0.00000           0.110896            3.01764
    236       0.00000           0.113367            3.08486
    237       0.00000           0.115656            3.14717
    238       0.00000           0.116048            3.15782
    239       0.00000           0.119212            3.24393
    240       0.00000           0.120128            3.26886
    241       0.00000           0.123333            3.35607
    242       0.00000           0.123424            3.35852
    243       0.00000           0.128040            3.48414
    244       0.00000           0.129662            3.52828
    245       0.00000           0.132861            3.61533
    246       0.00000           0.135831            3.69615
    247       0.00000           0.139137            3.78611
    248       0.00000           0.140355            3.81925
    249       0.00000           0.145140            3.94947
    250       0.00000           0.147459            4.01257
    251       0.00000           0.148701            4.04636
    252       0.00000           0.151395            4.11967
    253       0.00000           0.151640            4.12633
    254       0.00000           0.155762            4.23849
    255       0.00000           0.156488            4.25826
    256       0.00000           0.157703            4.29131
    257       0.00000           0.159244            4.33325
    258       0.00000           0.160980            4.38048
    259       0.00000           0.165607            4.50640
    260       0.00000           0.166816            4.53929
    261       0.00000           0.167472            4.55713
    262       0.00000           0.168917            4.59645
    263       0.00000           0.169973            4.62521
    264       0.00000           0.174313            4.74330
    265       0.00000           0.177835            4.83913
    266       0.00000           0.180323            4.90683
    267       0.00000           0.181998            4.95241
    268       0.00000           0.182687            4.97117
    269       0.00000           0.185443            5.04615
    270       0.00000           0.188633            5.13296
    271       0.00000           0.188735            5.13573
    272       0.00000           0.192208            5.23024
    273       0.00000           0.194129            5.28251
    274       0.00000           0.197090            5.36309
    275       0.00000           0.198280            5.39547
    276       0.00000           0.199734            5.43504
    277       0.00000           0.203776            5.54502
    278       0.00000           0.204107            5.55403
    279       0.00000           0.205498            5.59190
    280       0.00000           0.207981            5.65945
    281       0.00000           0.210341            5.72368
    282       0.00000           0.210940            5.73996
    283       0.00000           0.215292            5.85840
    284       0.00000           0.218597            5.94832
    285       0.00000           0.221829            6.03627
    286       0.00000           0.225160            6.12691
    287       0.00000           0.230970            6.28502
    288       0.00000           0.231791            6.30735
    289       0.00000           0.232319            6.32171
    290       0.00000           0.236137            6.42562
    291       0.00000           0.237191            6.45431
    292       0.00000           0.239311            6.51197
    293       0.00000           0.242560            6.60039
    294       0.00000           0.247682            6.73977
    295       0.00000           0.252142            6.86114
    296       0.00000           0.254713            6.93109
    297       0.00000           0.256059            6.96773
    298       0.00000           0.256623            6.98307
    299       0.00000           0.259957            7.07378
    300       0.00000           0.261392            7.11283
    301       0.00000           0.265567            7.22646
    302       0.00000           0.266542            7.25297
    303       0.00000           0.268879            7.31657
    304       0.00000           0.274676            7.47432
    305       0.00000           0.275127            7.48658
    306       0.00000           0.276062            7.51202
    307       0.00000           0.281570            7.66191
    308       0.00000           0.282305            7.68191

  Highest occupied state (VBM) at     -9.70782379 eV
  | Occupation number:      2.00000000

  Lowest unoccupied state (CBM) at    -7.13663556 eV
  | Occupation number:      0.00000000

  Overall HOMO-LUMO gap:      2.57118823 eV.
  Calculating total energy contributions from superposition of free atom densities.

  Total energy components:
  | Sum of eigenvalues            :       -1022.70579599 Ha      -27829.24064500 eV
  | XC energy correction          :        -241.33268156 Ha       -6566.99639033 eV
  | XC potential correction       :         309.99621315 Ha        8435.42614946 eV
  | Free-atom electrostatic energy:        -737.15198493 Ha      -20058.92609699 eV
  | Hartree energy correction     :           0.00000000 Ha           0.00000000 eV
  | Entropy correction            :           0.00000000 Ha           0.00000000 eV
  | ---------------------------
  | Total energy                  :       -1691.19424934 Ha      -46019.73698285 eV
  | Total energy, T -> 0          :       -1691.19424934 Ha      -46019.73698285 eV  <-- do not rely on this value for anything but (periodic) metals
  | Electronic free energy        :       -1691.19424934 Ha      -46019.73698285 eV

  Derived energy quantities:
  | Kinetic energy                :        1676.99813802 Ha       45633.44113942 eV
  | Electrostatic energy          :       -3126.85970580 Ha      -85086.18173195 eV
  | Energy correction for multipole
  | error in Hartree potential    :           0.00000000 Ha           0.00000000 eV
  | Sum of eigenvalues per atom                           :        -421.65516129 eV
  | Total energy (T->0) per atom                          :        -697.26874216 eV  <-- do not rely on this value for anything but (periodic) metals
  | Electronic free energy per atom                       :        -697.26874216 eV
  Initialize hartree_potential_storage
  Max. number of atoms included in rho_multipole:           66

  End scf initialization - timings             :  max(cpu_time)    wall_clock(cpu1)
  | Time for scf. initialization               :       12.155 s          12.180 s
  | Boundary condition initialization          :        0.000 s           0.001 s
  | Integration                                :        9.454 s           9.455 s
  | Solution of K.-S. eqns.                    :        0.429 s           0.430 s
  | Grid partitioning                          :        1.003 s           1.007 s
  | Preloading free-atom quantities on grid    :        0.013 s           0.013 s
  | Free-atom superposition energy             :        0.098 s           0.098 s
  | Total energy evaluation                    :        0.000 s           0.000 s

  Partial memory accounting:
  | Current value for overall tracked memory usage on task 0  :           7.725 MB
  | Peak value for overall tracked memory usage on task 0     :          33.137 MB after allocating zora_vector2
  | Largest tracked array allocation on task 0 so far         :           8.803 MB  when allocating hamiltonian_shell
  Note:  These values currently only include a subset of arrays which are explicitly tracked.
  The "true" memory usage will be greater.
------------------------------------------------------------

------------------------------------------------------------
          Begin self-consistency iteration #    1

  Date     :  20210809, Time     :  125302.708
------------------------------------------------------------
  Evaluating new KS density.
  Integration grid: deviation in total charge (<rho> - N_e) =   2.842171E-13
  Pulay mixing of updated and previous charge densities.

  Evaluating partitioned Hartree potential by multipole expansion.
  | Analytical far-field extrapolation by fixed multipoles:
  | Hartree multipole sum: apparent total charge =  -0.287152E-03
  Summing up the Hartree potential with load balancing.
  Time summed over all CPUs for potential: real work       44.034 s, elapsed       73.548 s
  | RMS charge density error from multipole expansion :   0.159144E-01

  Start compute_balanced_batch_distribution
  Done load balancing, time needed:      0.010 s
  Integrating Hamiltonian matrix: batch-based integration with load balancing
  Time summed over all CPUs for integration: real work      256.603 s, elapsed      285.626 s
  Time get_set_full_local_matrix_scalapack:     0.024892 s
  Start compute_balanced_batch_distribution
  Done load balancing, time needed:      0.011 s

  Updating Kohn-Sham eigenvalues and eigenvectors using ELSI and the ELPA eigensolver.
  Finished transformation to standard eigenproblem
  | Time :     0.035 s
  Starting ELPA eigensolver
  Finished solving standard eigenproblem
  | Time :     0.171 s
  Finished back-transformation of eigenvectors
  | Time :     0.008 s

  Obtaining occupation numbers and chemical potential using ELSI.
  | Chemical potential (Fermi level):    -5.47883295 eV
  Writing Kohn-Sham eigenvalues.

  State    Occupation    Eigenvalue [Ha]    Eigenvalue [eV]
      1       2.00000         -10.006136         -272.28080
      2       2.00000         -10.006118         -272.28033
      3       2.00000         -10.005058         -272.25148
      4       2.00000         -10.005036         -272.25089
      5       2.00000          -9.992786         -271.91754
      6       2.00000          -9.992778         -271.91731
      7       2.00000          -9.989451         -271.82678
      8       2.00000          -9.989445         -271.82663
      9       2.00000          -9.985371         -271.71576
     10       2.00000          -9.985355         -271.71533
     11       2.00000          -9.985179         -271.71053
     12       2.00000          -9.985167         -271.71022
     13       2.00000          -9.982610         -271.64063
     14       2.00000          -9.982571         -271.63957
     15       2.00000          -9.982358         -271.63379
     16       2.00000          -9.982309         -271.63245
     17       2.00000          -9.975958         -271.45962
     18       2.00000          -9.965077         -271.16355
     19       2.00000          -9.965071         -271.16338
     20       2.00000          -9.964147         -271.13823
     21       2.00000          -9.964143         -271.13813
     22       2.00000          -9.963700         -271.12606
     23       2.00000          -9.963269         -271.11434
     24       2.00000          -9.951936         -270.80595
     25       2.00000          -9.951925         -270.80566
     26       2.00000          -9.951860         -270.80390
     27       2.00000          -9.951836         -270.80324
     28       2.00000          -9.950742         -270.77348
     29       2.00000          -9.950721         -270.77291
     30       2.00000          -9.950659         -270.77121
     31       2.00000          -9.950596         -270.76951
     32       2.00000          -9.950581         -270.76908
     33       2.00000          -9.950553         -270.76831
     34       2.00000          -9.950338         -270.76248
     35       2.00000          -9.950097         -270.75592
     36       2.00000          -9.946894         -270.66875
     37       2.00000          -9.946886         -270.66854
     38       2.00000          -9.946712         -270.66382
     39       2.00000          -9.946696         -270.66336
     40       2.00000          -9.946374         -270.65461
     41       2.00000          -9.946374         -270.65460
     42       2.00000          -9.945537         -270.63182
     43       2.00000          -9.945527         -270.63155
     44       2.00000          -9.943944         -270.58849
     45       2.00000          -0.894914          -24.35185
     46       2.00000          -0.875969          -23.83634
     47       2.00000          -0.866193          -23.57030
     48       2.00000          -0.842978          -22.93859
     49       2.00000          -0.837994          -22.80298
     50       2.00000          -0.833121          -22.67037
     51       2.00000          -0.830296          -22.59351
     52       2.00000          -0.807770          -21.98054
     53       2.00000          -0.797677          -21.70590
     54       2.00000          -0.790959          -21.52308
     55       2.00000          -0.774038          -21.06264
     56       2.00000          -0.770642          -20.97023
     57       2.00000          -0.761044          -20.70906
     58       2.00000          -0.756099          -20.57449
     59       2.00000          -0.748019          -20.35462
     60       2.00000          -0.738608          -20.09855
     61       2.00000          -0.720928          -19.61745
     62       2.00000          -0.720801          -19.61399
     63       2.00000          -0.714411          -19.44012
     64       2.00000          -0.712239          -19.38101
     65       2.00000          -0.705716          -19.20350
     66       2.00000          -0.701004          -19.07529
     67       2.00000          -0.651883          -17.73864
     68       2.00000          -0.651364          -17.72451
     69       2.00000          -0.647113          -17.60885
     70       2.00000          -0.635228          -17.28544
     71       2.00000          -0.629684          -17.13458
     72       2.00000          -0.620454          -16.88342
     73       2.00000          -0.617635          -16.80670
     74       2.00000          -0.613246          -16.68726
     75       2.00000          -0.598687          -16.29110
     76       2.00000          -0.598481          -16.28551
     77       2.00000          -0.592219          -16.11510
     78       2.00000          -0.580828          -15.80514
     79       2.00000          -0.568067          -15.45789
     80       2.00000          -0.555814          -15.12447
     81       2.00000          -0.545072          -14.83216
     82       2.00000          -0.542850          -14.77171
     83       2.00000          -0.530538          -14.43667
     84       2.00000          -0.524074          -14.26077
     85       2.00000          -0.521918          -14.20211
     86       2.00000          -0.518336          -14.10463
     87       2.00000          -0.512180          -13.93713
     88       2.00000          -0.497827          -13.54655
     89       2.00000          -0.495478          -13.48264
     90       2.00000          -0.495394          -13.48037
     91       2.00000          -0.487568          -13.26739
     92       2.00000          -0.475900          -12.94990
     93       2.00000          -0.475177          -12.93022
     94       2.00000          -0.469268          -12.76943
     95       2.00000          -0.457823          -12.45800
     96       2.00000          -0.451144          -12.27626
     97       2.00000          -0.450418          -12.25649
     98       2.00000          -0.447472          -12.17632
[...]
    138       2.00000          -0.214666           -5.84136
    139       2.00000          -0.211645           -5.75915
    140       2.00000          -0.204238           -5.55760
    141       2.00000          -0.203279           -5.53150
    142       2.00000          -0.198534           -5.40237
    143       2.00000          -0.193648           -5.26944
    144       0.00000          -0.100877           -2.74499
    145       0.00000          -0.100541           -2.73585
    146       0.00000          -0.076598           -2.08433
    147       0.00000          -0.074274           -2.02110
    148       0.00000          -0.072828           -1.98176
    149       0.00000          -0.066914           -1.82083
    150       0.00000          -0.047734           -1.29890
    151       0.00000          -0.044500           -1.21091
    152       0.00000          -0.028161           -0.76631
    153       0.00000          -0.026185           -0.71253
    154       0.00000          -0.015438           -0.42009
    155       0.00000          -0.012192           -0.33177
    156       0.00000          -0.007965           -0.21673
    157       0.00000          -0.006231           -0.16956
    158       0.00000          -0.005368           -0.14608
    159       0.00000          -0.003374           -0.09180
    160       0.00000           0.002994            0.08148
    161       0.00000           0.003625            0.09865
    162       0.00000           0.012849            0.34963
    163       0.00000           0.014434            0.39276
    164       0.00000           0.014601            0.39732
    165       0.00000           0.026108            0.71044
    166       0.00000           0.027005            0.73484
    167       0.00000           0.035858            0.97575
    168       0.00000           0.038161            1.03842
    169       0.00000           0.038166            1.03856
    170       0.00000           0.039489            1.07456
    171       0.00000           0.045311            1.23299
    172       0.00000           0.049491            1.34672
    173       0.00000           0.053565            1.45758
    174       0.00000           0.055284            1.50436
    175       0.00000           0.058387            1.58878
    176       0.00000           0.060488            1.64596
    177       0.00000           0.065186            1.77379
    178       0.00000           0.069728            1.89739
    179       0.00000           0.076466            2.08075
    180       0.00000           0.081639            2.22151
    181       0.00000           0.082116            2.23449
    182       0.00000           0.083605            2.27502
    183       0.00000           0.084314            2.29430
    184       0.00000           0.095250            2.59188
    185       0.00000           0.100633            2.73836
    186       0.00000           0.106805            2.90630
    187       0.00000           0.110952            3.01916
    188       0.00000           0.111719            3.04002
    189       0.00000           0.111879            3.04439
    190       0.00000           0.113555            3.09000
    191       0.00000           0.114565            3.11747
    192       0.00000           0.117006            3.18390
    193       0.00000           0.119113            3.24124
    194       0.00000           0.122068            3.32164
    195       0.00000           0.127499            3.46944
    196       0.00000           0.130353            3.54707
    197       0.00000           0.137754            3.74847
    198       0.00000           0.137963            3.75416
    199       0.00000           0.141273            3.84423
    200       0.00000           0.145826            3.96812
    201       0.00000           0.147883            4.02410
    202       0.00000           0.150162            4.08611
    203       0.00000           0.150867            4.10529
    204       0.00000           0.155438            4.22969
    205       0.00000           0.156346            4.25440
    206       0.00000           0.158657            4.31727
    207       0.00000           0.160750            4.37424
    208       0.00000           0.163785            4.45681
    209       0.00000           0.165752            4.51033
    210       0.00000           0.167984            4.57107
    211       0.00000           0.168088            4.57390
    212       0.00000           0.170862            4.64939
    213       0.00000           0.172851            4.70352
    214       0.00000           0.176575            4.80484
    215       0.00000           0.177453            4.82875
    216       0.00000           0.178830            4.86622
    217       0.00000           0.180462            4.91063
    218       0.00000           0.183253            4.98656
    219       0.00000           0.185264            5.04128
    220       0.00000           0.186272            5.06871
    221       0.00000           0.188108            5.11867
    222       0.00000           0.188446            5.12789
    223       0.00000           0.191571            5.21290
    224       0.00000           0.192297            5.23267
    225       0.00000           0.193127            5.25526
    226       0.00000           0.194938            5.30454
    227       0.00000           0.195452            5.31853
    228       0.00000           0.198646            5.40543
    229       0.00000           0.201087            5.47186
    230       0.00000           0.202431            5.50842
    231       0.00000           0.204492            5.56451
    232       0.00000           0.211067            5.74341
    233       0.00000           0.212301            5.77700
    234       0.00000           0.215623            5.86741
    235       0.00000           0.216100            5.88038
    236       0.00000           0.219772            5.98029
    237       0.00000           0.220878            6.01039
    238       0.00000           0.221584            6.02962
    239       0.00000           0.222516            6.05497
    240       0.00000           0.225516            6.13659
    241       0.00000           0.226417            6.16112
    242       0.00000           0.228600            6.22052
    243       0.00000           0.230410            6.26977
    244       0.00000           0.233824            6.36268
    245       0.00000           0.235511            6.40859
    246       0.00000           0.235610            6.41127
    247       0.00000           0.238040            6.47739
    248       0.00000           0.238674            6.49465
    249       0.00000           0.242710            6.60448
    250       0.00000           0.249518            6.78974
    251       0.00000           0.249849            6.79875
    252       0.00000           0.251927            6.85528
    253       0.00000           0.255369            6.94894
    254       0.00000           0.258414            7.03179
    255       0.00000           0.259207            7.05338
    256       0.00000           0.261064            7.10390
    257       0.00000           0.264292            7.19176
    258       0.00000           0.264357            7.19353
    259       0.00000           0.270347            7.35651
    260       0.00000           0.272242            7.40808
    261       0.00000           0.273396            7.43950
    262       0.00000           0.275507            7.49691
    263       0.00000           0.276152            7.51447
    264       0.00000           0.277955            7.56355
    265       0.00000           0.280258            7.62622
    266       0.00000           0.281219            7.65237
    267       0.00000           0.285024            7.75590
    268       0.00000           0.285945            7.78097
    269       0.00000           0.287742            7.82985
    270       0.00000           0.292696            7.96467
    271       0.00000           0.293044            7.97414
    272       0.00000           0.294732            8.02007
    273       0.00000           0.302719            8.23740
    274       0.00000           0.303459            8.25754
    275       0.00000           0.305008            8.29968
    276       0.00000           0.307478            8.36690
    277       0.00000           0.311218            8.46868
    278       0.00000           0.311870            8.48642
    279       0.00000           0.314851            8.56753
    280       0.00000           0.317161            8.63039
    281       0.00000           0.320217            8.71354
    282       0.00000           0.321774            8.75592
    283       0.00000           0.322054            8.76352
    284       0.00000           0.328547            8.94022
    285       0.00000           0.330357            8.98948
    286       0.00000           0.332383            9.04460
    287       0.00000           0.335891            9.14006
    288       0.00000           0.338823            9.21984
    289       0.00000           0.342896            9.33067
    290       0.00000           0.344992            9.38772
    291       0.00000           0.347598            9.45863
    292       0.00000           0.351432            9.56296
    293       0.00000           0.356489            9.70057
    294       0.00000           0.357900            9.73897
    295       0.00000           0.363283            9.88543
    296       0.00000           0.366875            9.98318
    297       0.00000           0.369901           10.06551
    298       0.00000           0.369991           10.06798
    299       0.00000           0.371444           10.10751
    300       0.00000           0.374791           10.19858
    301       0.00000           0.375595           10.22047
    302       0.00000           0.378405           10.29692
    303       0.00000           0.381782           10.38881
    304       0.00000           0.387451           10.54307
    305       0.00000           0.391113           10.64272
    306       0.00000           0.391426           10.65123
    307       0.00000           0.397124           10.80628
    308       0.00000           0.398339           10.83936

  Highest occupied state (VBM) at     -5.26943810 eV
  | Occupation number:      2.00000000

  Lowest unoccupied state (CBM) at    -2.74499355 eV
  | Occupation number:      0.00000000

  Overall HOMO-LUMO gap:      2.52444455 eV.

  Total energy components:
  | Sum of eigenvalues            :        -962.51566595 Ha      -26191.38387344 eV
  | XC energy correction          :        -245.43522776 Ha       -6678.63235252 eV
  | XC potential correction       :         315.29719078 Ha        8579.67309017 eV
  | Free-atom electrostatic energy:        -737.15198493 Ha      -20058.92609699 eV
  | Hartree energy correction     :         -59.47822591 Ha       -1618.48487461 eV
  | Entropy correction            :           0.00000000 Ha           0.00000000 eV
  | ---------------------------
  | Total energy                  :       -1689.28391377 Ha      -45967.75410739 eV
  | Total energy, T -> 0          :       -1689.28391377 Ha      -45967.75410739 eV  <-- do not rely on this value for anything but (periodic) metals
  | Electronic free energy        :       -1689.28391377 Ha      -45967.75410739 eV

  Derived energy quantities:
  | Kinetic energy                :        1684.39477858 Ha       45834.71396975 eV
  | Electrostatic energy          :       -3128.24346459 Ha      -85123.83572462 eV
  | Energy correction for multipole
  | error in Hartree potential    :          -0.20956272 Ha          -5.70249170 eV
  | Sum of eigenvalues per atom                           :        -396.83914960 eV
  | Total energy (T->0) per atom                          :        -696.48112284 eV  <-- do not rely on this value for anything but (periodic) metals
  | Electronic free energy per atom                       :        -696.48112284 eV
  End evaluation of scaled ZORA corrections.
  | Time for scaled ZORA corrections           :        8.723 s           8.731 s
------------------------------------------------------------

  Energy and forces in a compact form:
  | Total energy uncorrected      :         -0.459677541073900E+05 eV
  | Total energy corrected        :         -0.459677541073900E+05 eV  <-- do not rely on this value for anything but (periodic) metals
  | Electronic free energy        :         -0.459677541073900E+05 eV

  ------------------------------------ 
  Start decomposition of the XC Energy 
  ------------------------------------ 
  X and C from original XC functional choice 
  Hartree-Fock Energy :          0.000000000 Ha              0.000000000 eV
  X Energy            :       -235.777363395 Ha          -6415.828491729 eV
  C Energy            :         -9.657864369 Ha           -262.803860788 eV
  Total XC Energy     :       -245.435227763 Ha          -6678.632352517 eV
  ------------------------------------ 
  LDA X and C from self-consistent density 
  X Energy LDA        :       -213.604590458 Ha          -5812.476641919 eV
  C Energy LDA        :        -18.544914565 Ha           -504.632800754 eV
  ------------------------------------ 
  End decomposition of the XC Energy 
  ------------------------------------ 

------------------------------------------------------------

------------------------------------------------------------------------------
  Final output of selected total energy values:

  The following output summarizes some interesting total energy values
  at the end of a run (AFTER all relaxation, molecular dynamics, etc.).

  | Total energy of the DFT / Hartree-Fock s.c.f. calculation      :         -45967.754107390 eV
  | Final zero-broadening corrected energy (caution - metals only) :         -45967.754107390 eV
  | For reference only, the value of 1 Hartree used in FHI-aims is :             27.211384500 eV

  Before relying on these values, please be sure to understand exactly which
  total energy value is referred to by a given number. Different objects may
  all carry the same name 'total energy'. Definitions:

  Total energy of the DFT / Hartree-Fock s.c.f. calculation:
  | Note that this energy does not include ANY quantities calculated after the
  | s.c.f. cycle, in particular not ANY RPA, MP2, etc. many-body perturbation terms.
  | Scalar relativistic effects have been included in the 'scaled ZORA' approximation.

  Final zero-broadening corrected energy:
  | For metallic systems only, a broadening of the occupation numbers at the Fermi
  | level can be extrapolated back to zero broadening by an electron-gas inspired
  | formula. For all systems that are not real metals, this value can be
  | meaningless and should be avoided.

------------------------------------------------------------------------------
  Methods described in the following list of references were used in this FHI-aims run.
  If you publish the results, please make sure to cite these reference if they apply.
  FHI-aims is an academic code, and for our developers (often, Ph.D. students
  and postdocs), scientific credit in the community is essential.
  Thank you for helping us!

  For any use of FHI-aims, please cite:

    Volker Blum, Ralf Gehrke, Felix Hanke, Paula Havu, Ville Havu,
    Xinguo Ren, Karsten Reuter, and Matthias Scheffler
    'Ab initio molecular simulations with numeric atom-centered orbitals'
    Computer Physics Communications 180, 2175-2196 (2009)
    http://dx.doi.org/10.1016/j.cpc.2009.06.022


  The scalable eigensolver library ELPA was used in your run.
  ELPA is essential especially for large systems on hundreds or thousands of CPUs.
  For ELPA, please cite:

    Andreas Marek, Volker Blum, Rainer Johanni, Ville Havu, Bruno Lang,
    Thomas Auckenthaler, Alexander Heinecke, Hans-Joachim Bungartz, and Hermann Lederer,
    'The ELPA Library - Scalable Parallel Eigenvalue Solutions
    for Electronic Structure Theory and Computational Science'
    The Journal of Physics: Condensed Matter 26, 213201 (2014).
    http://dx.doi.org/10.1088/0953-8984/26/21/213201


  The ELSI infrastructure was used in your run to solve the Kohn-Sham electronic structure.
  Please check out http://elsi-interchange.org to learn more.
  If scalability is important for your project, please acknowledge ELSI by citing:

    V. W-z. Yu, F. Corsetti, A. Garcia, W. P. Huhn, M. Jacquelin, W. Jia,
    B. Lange, L. Lin, J. Lu, W. Mi, A. Seifitokaldani, A. Vazquez-Mayagoitia,
    C. Yang, H. Yang, and V. Blum
    'ELSI: A unified software interface for Kohn-Sham electronic structure solvers'
    Computer Physics Communications 222, 267-285 (2018).
    http://dx.doi.org/10.1016/j.cpc.2017.09.007


  For the real-space grid partitioning and parallelization used in this calculation, please cite:

    Ville Havu, Volker Blum, Paula Havu, and Matthias Scheffler,
    'Efficient O(N) integration for all-electron electronic structure calculation'
    'using numerically tabulated basis functions'
    Journal of Computational Physics 228, 8367-8379 (2009).
    http://dx.doi.org/10.1016/j.jcp.2009.08.008

  Of course, there are many other important community references, e.g., those cited in the
  above references. Our list is limited to references that describe implementations in the
  FHI-aims code. The reason is purely practical (length of this list) - please credit others as well.

------------------------------------------------------------
          Leaving FHI-aims.
          Date     :  20210809, Time     :  125542.859

          Computational steps:
          | Number of self-consistency cycles          :           18
          | Number of SCF (re)initializations          :            1

          Detailed time accounting                     :  max(cpu_time)    wall_clock(cpu1)
          | Total time                                 :      172.421 s         172.720 s
          | Preparation time                           :        0.180 s           0.167 s
          | Boundary condition initalization           :        0.000 s           0.001 s
          | Grid partitioning                          :        1.003 s           1.007 s
          | Preloading free-atom quantities on grid    :        0.013 s           0.013 s
          | Free-atom superposition energy             :        0.098 s           0.098 s
          | Total time for integrations                :       96.077 s          96.083 s
          | Total time for solution of K.-S. equations :        5.536 s           5.546 s
          | Total time for density update              :       42.217 s          42.155 s
          | Total time for mixing                      :        0.200 s           0.203 s
          | Total time for Hartree multipole update    :        0.236 s           0.238 s
          | Total time for Hartree multipole sum       :       16.639 s          16.651 s
          | Total time for total energy evaluation     :        0.006 s           0.029 s
          | Total time for scaled ZORA corrections     :        8.723 s           8.731 s

          Partial memory accounting:
          | Residual value for overall tracked memory usage across tasks :     0.000000 MB (should be 0.000000 MB)
          | Peak values for overall tracked memory usage (after allocating zora_vector2):
          |   Minimum:       33.074 MB (on task 17)
          |   Maximum:       44.440 MB (on task 19)
          |   Average:       37.908 MB
          | Largest tracked array allocation (hamiltonian_shell):
          |   Minimum:        8.803 MB (on task  1)
          |   Maximum:        9.591 MB (on task 19)
          |   Average:        8.833 MB
          Note:  These values currently only include a subset of arrays which are explicitly tracked.
          The "true" memory usage will be greater.

          Have a nice day.
------------------------------------------------------------
