  MPI-parallelism will be employed.
------------------------------------------------------------
          Invoking FHI-aims ...
          Version 180607
          Git rev. (modified): 6724847 Fix JSON memory corruption in scf_solver
          Compiled on 2018/06/27 at 16:00:31 on host coe.psc.edu.

          When using FHI-aims, please cite the following reference:

          Volker Blum, Ralf Gehrke, Felix Hanke, Paula Havu,
          Ville Havu, Xinguo Ren, Karsten Reuter, and Matthias Scheffler,
          'Ab Initio Molecular Simulations with Numeric Atom-Centered Orbitals',
          Computer Physics Communications 180, 2175-2196 (2009)

          For any questions about FHI-aims, please visit the aimsclub website
          with its forums and wiki. Contributions to both the forums and the
          wiki are warmly encouraged - they are for you, and everyone is welcome there.

------------------------------------------------------------



  Date     :  20210620, Time     :  173533.282
  Time zero on CPU 1             :   0.207953000000000E+00  s.
  Internal wall clock time zero  :           393442533.282  s.

  FHI-aims created a unique identifier for this run for later identification
  aims_uuid : 461D15B6-ED91-42D1-A03E-7E2DA953F95C

  Using       56 parallel tasks.
  Task        0 on host d001 reporting.
  Task        1 on host d001 reporting.
  Task        2 on host d001 reporting.
  Task        3 on host d001 reporting.
  Task        4 on host d001 reporting.
  Task        5 on host d001 reporting.
  Task        6 on host d001 reporting.
  Task        7 on host d001 reporting.
  Task        8 on host d001 reporting.
  Task        9 on host d001 reporting.
  Task       10 on host d001 reporting.
  Task       11 on host d001 reporting.
  Task       12 on host d001 reporting.
  Task       13 on host d001 reporting.
  Task       14 on host d001 reporting.
  Task       15 on host d001 reporting.
  Task       16 on host d001 reporting.
  Task       17 on host d001 reporting.
  Task       18 on host d001 reporting.
  Task       19 on host d001 reporting.
  Task       20 on host d001 reporting.
  Task       21 on host d001 reporting.
  Task       22 on host d001 reporting.
  Task       23 on host d001 reporting.
  Task       24 on host d001 reporting.
  Task       25 on host d001 reporting.
  Task       26 on host d001 reporting.
  Task       27 on host d001 reporting.
  Task       28 on host d001 reporting.
  Task       29 on host d001 reporting.
  Task       30 on host d001 reporting.
  Task       31 on host d001 reporting.
  Task       32 on host d001 reporting.
  Task       33 on host d001 reporting.
  Task       34 on host d001 reporting.
  Task       35 on host d001 reporting.
  Task       36 on host d001 reporting.
  Task       37 on host d001 reporting.
  Task       38 on host d001 reporting.
  Task       39 on host d001 reporting.
  Task       40 on host d001 reporting.
  Task       41 on host d001 reporting.
  Task       42 on host d001 reporting.
  Task       43 on host d001 reporting.
  Task       44 on host d001 reporting.
  Task       45 on host d001 reporting.
  Task       46 on host d001 reporting.
  Task       47 on host d001 reporting.
  Task       48 on host d001 reporting.
  Task       49 on host d001 reporting.
  Task       50 on host d001 reporting.
  Task       51 on host d001 reporting.
  Task       52 on host d001 reporting.
  Task       53 on host d001 reporting.
  Task       54 on host d001 reporting.
  Task       55 on host d001 reporting.

  Performing system and environment tests:
  *** Environment variable OMP_NUM_THREADS is not set
  *** For performance reasons you might want to set it to 1
  | Stacksize not measured: no C compiler
  | Checking for scalapack...
  | Testing pdtran()...
  | All pdtran() tests passed.

  Obtaining array dimensions for all initial allocations:
  
  -----------------------------------------------------------------------
  Parsing control.in (first pass over file, find array dimensions only).
  The contents of control.in will be repeated verbatim below
  unless switched off by setting 'verbatim_writeout .false.' .
  in the first line of control.in .
  -----------------------------------------------------------------------
  
  #===============================================================================
  # FHI-aims file: ./Runs/es/control.in
  # Created using the Atomic Simulation Environment (ASE)
  # Mon Jan 13 16:04:38 2020
  #===============================================================================
  xc                                 pbe
  relativistic                       zora scalar 1e-12
  occupation_type                    gaussian 0.0001
  load_balancing                     .true.
  KS_method                          scalapack_fast
  mixer                              pulay
  n_max_pulay                        5
  charge_mix_param                   0.4
  sc_accuracy_etot                   1e-6
  sc_accuracy_eev                    1e-4
  sc_accuracy_rho                    1e-6
  sc_iter_limit                      100
  prodbas_threshold                  1e-4
  basis_threshold                    1e-5
  override_illconditioning           .true.
  use_logsbt                         .true.
  spin                               none
  charge                             0
  #===============================================================================
  
  ################################################################################
  #
  #  FHI-aims code project
  # Volker Blum, Fritz Haber Institute Berlin, 2009
  #
  #  Suggested "tight" defaults for H atom (to be pasted into control.in file)
  #
  ################################################################################
    species        H
  #     global species definitions
      nucleus             1
      mass                1.00794
  #
      l_hartree           6
  #
      cut_pot             4.0  2.0  1.0
      basis_dep_cutoff    1e-4
  #
      radial_base         24 7.0
      radial_multiplier   2
      angular_grids       specified
        division   0.1930   50
        division   0.3175  110
        division   0.4293  194
        division   0.5066  302
        division   0.5626  434
  #      division   0.5922  590
  #      division   0.6227  974
  #      division   0.6868 1202
  #      outer_grid  770
        outer_grid  434
  ################################################################################
  #
  #  Definition of "minimal" basis
  #
  ################################################################################
  #     valence basis states
      valence      1  s   1.
  #     ion occupancy
      ion_occ      1  s   0.5
  ################################################################################
  #
  #  Suggested additional basis functions. For production calculations,
  #  uncomment them one after another (the most important basis functions are
  #  listed first).
  #
  #  Basis constructed for dimers: 0.5 A, 0.7 A, 1.0 A, 1.5 A, 2.5 A
  #
  ################################################################################
  #  "First tier" - improvements: -1014.90 meV to -62.69 meV
       hydro 2 s 2.1
       hydro 2 p 3.5
  #  "Second tier" - improvements: -12.89 meV to -1.83 meV
       hydro 1 s 0.85
       hydro 2 p 3.7
       hydro 2 s 1.2
       hydro 3 d 7
  #  "Third tier" - improvements: -0.25 meV to -0.12 meV
  #     hydro 4 f 11.2
  #     hydro 3 p 4.8
  #     hydro 4 d 9
  #     hydro 3 s 3.2
  ################################################################################
  #
  # For methods that use the localized form of the "resolution of identity" for
  # the two-electron Coulomb operator (RI_method LVL), particularly Hartree-Fock and
  # hybrid density functional calculations, the highest accuracy can be obtained by
  # uncommenting the line beginning with "for_aux"  below, thus adding an extra g radial
  # function to the construction of the product basis set for the expansion.
  # See Ref. New J. Phys. 17, 093020 (2015) for more information, particularly Figs. 1 and 6.
  #
  ################################################################################
  #
  # for_aux hydro 5 g 6.0
  ################################################################################
  #
  #  FHI-aims code project
  # Volker Blum, Fritz Haber Institute Berlin, 2009
  #
  #  Suggested "tight" defaults for C atom (to be pasted into control.in file)
  #
  ################################################################################
    species        C
  #     global species definitions
      nucleus             6
      mass                12.0107
  #
      l_hartree           6
  #
      cut_pot             4.0  2.0  1.0
      basis_dep_cutoff    1e-4
  #
      radial_base         34 7.0
      radial_multiplier   2
      angular_grids specified
        division   0.2187   50
        division   0.4416  110
        division   0.6335  194
        division   0.7727  302
        division   0.8772  434
  #      division   0.9334  590
  #      division   0.9924  770
  #      division   1.0230  974
  #      division   1.5020 1202
  #     outer_grid  974
        outer_grid  434
  ################################################################################
  #
  #  Definition of "minimal" basis
  #
  ################################################################################
  #     valence basis states
      valence      2  s   2.
      valence      2  p   2.
  #     ion occupancy
      ion_occ      2  s   1.
      ion_occ      2  p   1.
  ################################################################################
  #
  #  Suggested additional basis functions. For production calculations,
  #  uncomment them one after another (the most important basis functions are
  #  listed first).
  #
  #  Constructed for dimers: 1.0 A, 1.25 A, 1.5 A, 2.0 A, 3.0 A
  #
  ################################################################################
  #  "First tier" - improvements: -1214.57 meV to -155.61 meV
       hydro 2 p 1.7
       hydro 3 d 6
       hydro 2 s 4.9
  #  "Second tier" - improvements: -67.75 meV to -5.23 meV
       hydro 4 f 9.8
       hydro 3 p 5.2
       hydro 3 s 4.3
       hydro 5 g 14.4
       hydro 3 d 6.2
  #  "Third tier" - improvements: -2.43 meV to -0.60 meV
  #     hydro 2 p 5.6
  #     hydro 2 s 1.4
  #     hydro 3 d 4.9
  #     hydro 4 f 11.2
  #  "Fourth tier" - improvements: -0.39 meV to -0.18 meV
  #     hydro 2 p 2.1
  #     hydro 5 g 16.4
  #     hydro 4 d 13.2
  #     hydro 3 s 13.6
  #     hydro 4 f 17.6
  #  Further basis functions - improvements: -0.08 meV and below
  #     hydro 3 s 2
  #     hydro 3 p 6
  #     hydro 4 d 20
  ################################################################################
  #
  # For methods that use the localized form of the "resolution of identity" for
  # the two-electron Coulomb operator (RI_method LVL), particularly Hartree-Fock and
  # hybrid density functional calculations, the highest accuracy can be obtained by
  # uncommenting the line beginning with "for_aux"  below, thus adding an extra g radial
  # function to the construction of the product basis set for the expansion.
  # See Ref. New J. Phys. 17, 093020 (2015) for more information, particularly Figs. 1 and 6.
  #
  ################################################################################
  #
  # for_aux hydro 5 g 6.0
  
  -----------------------------------------------------------------------
  Completed first pass over input file control.in .
  -----------------------------------------------------------------------
  
  
  -----------------------------------------------------------------------
  Parsing geometry.in (first pass over file, find array dimensions only).
  The contents of geometry.in will be repeated verbatim below
  unless switched off by setting 'verbatim_writeout .false.' .
  in the first line of geometry.in .
  -----------------------------------------------------------------------
  
  #=======================================================
  # FHI-aims file: geometry.in
  # Created using the Atomic Simulation Environment (ASE)
  # Sun Jun 20 15:47:01 2021
  #=======================================================
  atom 14.3833620000000000 19.7328089999999996 27.8686380000000007 H
  atom 13.6100999999999992 19.4369230000000002 27.1655000000000015 C
  atom 12.6583559999999995 20.3522269999999992 26.7340529999999994 C
  atom 13.6166210000000003 18.1094040000000014 26.7001050000000006 C
  atom 11.6603169999999992 19.9225299999999983 25.8043140000000015 C
  atom 12.6458359999999992 21.7443910000000002 27.2174210000000016 C
  atom 12.6740200000000005 17.6825730000000014 25.8015809999999988 C
  atom 14.3845270000000003 17.4293230000000001 27.0619739999999993 H
  atom 10.6469640000000005 20.8137469999999993 25.3339789999999994 C
  atom 11.6731280000000002 18.5722850000000008 25.3357649999999985 C
  atom 11.6324830000000006 22.6356080000000013 26.7470859999999995 C
  atom 13.5890199999999997 22.2195679999999989 28.1166799999999988 C
  atom 12.6700020000000002 16.6538469999999990 25.4457030000000017 H
  atom 9.7037800000000001 20.3385700000000007 24.4347190000000012 C
  atom 10.6344440000000002 22.2059110000000004 25.8173460000000006 C
  atom 10.6829520000000002 18.1360859999999988 24.4207399999999986 C
  atom 11.6196719999999996 23.9858529999999988 27.2156340000000014 C
  atom 13.5697449999999993 23.5509810000000002 28.5771359999999994 C
  atom 14.3789370000000005 21.5683679999999995 28.4799159999999993 H
  atom 8.9138629999999992 20.9897710000000011 24.0714840000000017 H
  atom 9.7230550000000004 19.0071569999999994 23.9742640000000016 C
  atom 9.6827000000000005 23.1212149999999994 25.3858989999999984 C
  atom 10.6995480000000001 17.0981419999999993 24.0877750000000006 H
  atom 10.6187799999999992 24.8755650000000017 26.7498180000000012 C
  atom 12.6098479999999995 24.4220520000000008 28.1306590000000014 C
  atom 14.3400379999999998 23.8747690000000006 29.2750179999999993 H
  atom 8.9527619999999999 18.6833689999999990 23.2763810000000007 H
  atom 8.9094379999999997 22.8253290000000000 24.6827620000000003 H
  atom 9.6761789999999994 24.4487340000000017 25.8512950000000004 C
  atom 10.6227979999999995 25.9042920000000017 27.1056959999999982 H
  atom 12.5932519999999997 25.4599960000000003 28.4636250000000004 H
  atom 8.9082729999999994 25.1288149999999995 25.4894260000000017 H
  
  -----------------------------------------------------------------------
  Completed first pass over input file geometry.in .
  -----------------------------------------------------------------------
  

  Basic array size parameters:
  | Number of species                 :        2
  | Number of atoms                   :       32
  | Max. basis fn. angular momentum   :        4
  | Max. atomic/ionic basis occupied n:        2
  | Max. number of basis fn. types    :        2
  | Max. radial fns per species/type  :        8
  | Max. logarithmic grid size        :     1277
  | Max. radial integration grid size :       69
  | Max. angular integration grid size:      434
  | Max. angular grid division number :        8
  | Radial grid for Hartree potential :     1277
  | Number of spin channels           :        1

------------------------------------------------------------
          Reading file control.in.
------------------------------------------------------------
  XC: Using PBE gradient-corrected functionals.
  Scalar relativistic treatment of kinetic energy: ZORA.
  Threshold value for ZORA:   0.100000E-11
  Occupation type: Gaussian broadening, width =   0.100000E-03 eV.
  Since 'load_balancing .true.' is present in control.in, automatically turning on 'use_local_index .true.'.
  Using load balancing for integrations.
  Kohn-Sham electronic structure solved by the ELSI library.
  Using pulay charge density mixing.
  Pulay mixing - number of memorized iterations:    5
  Charge density mixing - mixing parameter:     0.4000
  Convergence accuracy of total energy:  0.1000E-05
  Convergence accuracy of sum of eigenvalues:  0.1000E-03
  Convergence accuracy of self-consistent charge density:  0.1000E-05
  Maximum number of s.-c. iterations  :   100
  * Ignoring prodbas_threshold
  Threshold for basis singularities:  0.1000E-04
  override_illconditioning: Explicitly overriding any built-in checks for an ill-conditioned overlap matrix.
  *** WARNING: If you use this flag, you should really know what you are doing.
  *** DO NOT keep this flag set by default in all your control.in files.
  Using 1D integrations for auxiliary 2-center integrals.
  Spin treatment: No spin polarisation.
  Charge =   0.000000E+00: Neutral system requested explicitly.
 
  Reading configuration options for species H                   .
  | Found nuclear charge :   1.0000
  | Found atomic mass :    1.00794000000000      amu
  | Found l_max for Hartree potential  :   6
  | Found cutoff potl. onset [A], width [A], scale factor :    4.00000    2.00000    1.00000
  | Threshold for basis-dependent cutoff potential is   0.100000E-03
  | Found data for basic radial integration grid :    24 points, outermost radius =    7.000 A
  | Found multiplier for basic radial grid :   2
  | Found angular grid specification: user-specified.
  | Specified grid contains     6 separate shells.
  | Check grid settings after all constraints further below.
  | Found free-atom valence shell :  1 s   1.000
  | No ionic wave fns used. Skipping ion_occ.
  | Found hydrogenic basis function :  2 s   2.100
  | Found hydrogenic basis function :  2 p   3.500
  | Found hydrogenic basis function :  1 s   0.850
  | Found hydrogenic basis function :  2 p   3.700
  | Found hydrogenic basis function :  2 s   1.200
  | Found hydrogenic basis function :  3 d   7.000
  Species H                   : Missing cutoff potential type.
  Defaulting to exp(1/x)/(1-x)^2 type cutoff potential.
  Species H : No 'logarithmic' tag. Using default grid for free atom:
  | Default logarithmic grid data [bohr] : 0.1000E-03 0.1000E+03 0.1012E+01
  Species H : On-site basis accuracy parameter (for Gram-Schmidt orthonormalisation) not specified.
  Using default value basis_acc =  0.1000000E-03.
  Species H                   : Using default innermost maximum threshold i_radial=  2 for radial functions.
  Species H                   : Default cutoff onset for free atom density etc. : 0.40000000E+01 AA.
  Species H                   : Basic radial grid will be enhanced according to radial_multiplier =   2, to contain    49 grid points.
 
  Reading configuration options for species C                   .
  | Found nuclear charge :   6.0000
  | Found atomic mass :    12.0107000000000      amu
  | Found l_max for Hartree potential  :   6
  | Found cutoff potl. onset [A], width [A], scale factor :    4.00000    2.00000    1.00000
  | Threshold for basis-dependent cutoff potential is   0.100000E-03
  | Found data for basic radial integration grid :    34 points, outermost radius =    7.000 A
  | Found multiplier for basic radial grid :   2
  | Found angular grid specification: user-specified.
  | Specified grid contains     6 separate shells.
  | Check grid settings after all constraints further below.
  | Found free-atom valence shell :  2 s   2.000
  | Found free-atom valence shell :  2 p   2.000
  | No ionic wave fns used. Skipping ion_occ.
  | No ionic wave fns used. Skipping ion_occ.
  | Found hydrogenic basis function :  2 p   1.700
  | Found hydrogenic basis function :  3 d   6.000
  | Found hydrogenic basis function :  2 s   4.900
  | Found hydrogenic basis function :  4 f   9.800
  | Found hydrogenic basis function :  3 p   5.200
  | Found hydrogenic basis function :  3 s   4.300
  | Found hydrogenic basis function :  5 g  14.400
  | Found hydrogenic basis function :  3 d   6.200
  Species C                   : Missing cutoff potential type.
  Defaulting to exp(1/x)/(1-x)^2 type cutoff potential.
  Species C : No 'logarithmic' tag. Using default grid for free atom:
  | Default logarithmic grid data [bohr] : 0.1000E-03 0.1000E+03 0.1012E+01
  Species C : On-site basis accuracy parameter (for Gram-Schmidt orthonormalisation) not specified.
  Using default value basis_acc =  0.1000000E-03.
  Species C                   : Using default innermost maximum threshold i_radial=  2 for radial functions.
  Species C                   : Default cutoff onset for free atom density etc. : 0.40000000E+01 AA.
  Species C                   : Basic radial grid will be enhanced according to radial_multiplier =   2, to contain    69 grid points.
 
  Finished reading input file 'control.in'. Consistency checks are next.
 
  MPI_IN_PLACE appears to work with this MPI implementation.
  | Keeping use_mpi_in_place .true. (see manual).
  Target number of points in a grid batch is not set. Defaulting to  100
  Method for grid partitioning is not set. Defaulting to parallel hash+maxmin partitioning.
  Batch size limit is not set. Defaulting to    200
  By default, will store active basis functions for each batch.
  If in need of memory, prune_basis_once .false. can be used to disable this option.
  communication_type for Hartree potential was not specified.
  Defaulting to calc_hartree .
  Pulay mixer: Number of initial linear mixing iterations not set.
  Defaulting to    0 iterations.
  Work space size for distributed Hartree potential not set.
  Defaulting to   0.200000E+03 MB.
  Algorithm-dependent basis array size parameters:
  | n_max_pulay                         :        5
  Presetting      1001 iterations before the initial mixing cycle
  is restarted anyway using the sc_init_iter criterion / keyword.
  Presetting a factor      1.000 between actual scf density residual
  and density convergence criterion sc_accuracy_rho below which sc_init_iter
  takes no effect.
  Calculation of forces was not defined in control.in. No forces will be calculated.
  Geometry relaxation not requested: no relaxation will be performed.
  No accuracy limit for integral partition fn. given. Defaulting to  0.1000E-14.
  No threshold value for u(r) in integrations given. Defaulting to  0.1000E-05.
  No accuracy for occupation numbers given. Defaulting to  0.1000E-12.
  No threshold value for occupation numbers given. Defaulting to  0.0000E+00.
  No accuracy for fermi level given. Defaulting to  0.1000E-19.
  Maximum # of iterations to find E_F not set. Defaulting to  200.
  Will not use alltoall communication since running on < 1024 CPUs.
  partition_type (choice of integration weights) for integrals was not specified.
  | Using a version of the partition function of Stratmann and coworkers ('stratmann_sparse').
  | At each grid point, the set of atoms used to build the partition table is smoothly restricted to
  | only those atoms whose free-atom density would be non-zero at that grid point.
  Partitioning for Hartree potential was not defined. Using partition_type for integrals.
  | Adjusted default value of keyword multip_moments_threshold to:       0.10000000E-11
  | This value may affect high angular momentum components of the Hartree potential in periodic systems.
  No q(lm)/r^(l+1) cutoff set for long-range Hartree potential.
  | Using default value of  0.100000E-09 .
  | Verify using the multipole_threshold keyword.
  Defaulting to new monopole extrapolation.
  Density update method: automatic selection selected.
 * Warning: use_local_index and/or load_balancing needs packed_matrix_format = index
 * Changing the default setting to packed_matrix_format = index
------------------------------------------------------------


------------------------------------------------------------
          Reading geometry description geometry.in.
------------------------------------------------------------
  Input structure read successfully.
  The structure contains       32 atoms,  and a total of        132.000 electrons.

  Input geometry:
  | No unit cell requested.
  | Atomic structure:
  |       Atom                x [A]            y [A]            z [A]
  |    1: Species H            14.38336200       19.73280900       27.86863800
  |    2: Species C            13.61010000       19.43692300       27.16550000
  |    3: Species C            12.65835600       20.35222700       26.73405300
  |    4: Species C            13.61662100       18.10940400       26.70010500
  |    5: Species C            11.66031700       19.92253000       25.80431400
  |    6: Species C            12.64583600       21.74439100       27.21742100
  |    7: Species C            12.67402000       17.68257300       25.80158100
  |    8: Species H            14.38452700       17.42932300       27.06197400
  |    9: Species C            10.64696400       20.81374700       25.33397900
  |   10: Species C            11.67312800       18.57228500       25.33576500
  |   11: Species C            11.63248300       22.63560800       26.74708600
  |   12: Species C            13.58902000       22.21956800       28.11668000
  |   13: Species H            12.67000200       16.65384700       25.44570300
  |   14: Species C             9.70378000       20.33857000       24.43471900
  |   15: Species C            10.63444400       22.20591100       25.81734600
  |   16: Species C            10.68295200       18.13608600       24.42074000
  |   17: Species C            11.61967200       23.98585300       27.21563400
  |   18: Species C            13.56974500       23.55098100       28.57713600
  |   19: Species H            14.37893700       21.56836800       28.47991600
  |   20: Species H             8.91386300       20.98977100       24.07148400
  |   21: Species C             9.72305500       19.00715700       23.97426400
  |   22: Species C             9.68270000       23.12121500       25.38589900
  |   23: Species H            10.69954800       17.09814200       24.08777500
  |   24: Species C            10.61878000       24.87556500       26.74981800
  |   25: Species C            12.60984800       24.42205200       28.13065900
  |   26: Species H            14.34003800       23.87476900       29.27501800
  |   27: Species H             8.95276200       18.68336900       23.27638100
  |   28: Species H             8.90943800       22.82532900       24.68276200
  |   29: Species C             9.67617900       24.44873400       25.85129500
  |   30: Species H            10.62279800       25.90429200       27.10569600
  |   31: Species H            12.59325200       25.45999600       28.46362500
  |   32: Species H             8.90827300       25.12881500       25.48942600
  |

  | The smallest distance between any two atoms is         1.08622479 AA.
  |
  | The first atom of this pair is atom number                     22 .
  | The second atom of this pair is atom number                    28 .

  Number of empty states per atom not set in control.in - providing a guess from actual geometry.
  | Total number of empty states used during s.c.f. cycle:       78
  If you use a very high smearing, use empty_states (per atom!) in control.in to increase this value.

  Structure-dependent array size parameters: 
  | Maximum number of distinct radial functions  :       18
  | Maximum number of basis functions            :      960
  | Number of Kohn-Sham states (occupied + empty):      144
------------------------------------------------------------

------------------------------------------------------------
          Preparing all fixed parts of the calculation.
------------------------------------------------------------
  Determining machine precision:
    2.225073858507201E-308
  Setting up grids for atomic and cluster calculations.

  Creating wave function, potential, and density for free atoms.

  Species: H

  List of occupied orbitals and eigenvalues:
    n    l              occ      energy [Ha]    energy [eV]
    1    0           1.0000        -0.238386        -6.4868


  Species: C

  List of occupied orbitals and eigenvalues:
    n    l              occ      energy [Ha]    energy [eV]
    1    0           2.0000       -10.049212      -273.4530
    2    0           2.0000        -0.504761       -13.7352
    2    1           2.0000        -0.193631        -5.2690

  Creating fixed part of basis set: Ionic, confined, hydrogenic.
 
  H                    hydrogenic:
 
  List of hydrogenic basis orbitals: 
    n    l      effective z      eigenvalue [eV]  inner max. [A]     outer max. [A]     outer radius [A]   
    2    0         2.100000       -14.9965           0.193243           1.317208           5.373006
    2    1         3.500000       -41.6672           0.602369           0.602369           4.056063
    1    0         0.850000        -9.8292           0.624871           0.624871           5.373006
    2    1         3.700000       -46.5653           0.573622           0.573622           3.910002
    2    0         1.200000        -4.5995           0.334980           2.228188           5.505995
    3    2         7.000000       -74.0753           0.680699           0.680699           3.769201
 
 
  C                    hydrogenic:
 
  List of hydrogenic basis orbitals: 
    n    l      effective z      eigenvalue [eV]  inner max. [A]     outer max. [A]     outer radius [A]   
    2    1         1.700000        -9.8152           1.245706           1.245706           5.401630
    3    2         6.000000       -54.4226           0.792453           0.792453           4.178599
    2    0         4.900000       -81.6681           0.082559           0.562749           3.353238
    4    3         9.800000       -81.6681           0.863254           0.863254           4.028125
    3    1         5.200000       -40.8774           0.305389           1.215618           4.898362
    3    0         4.300000       -27.9508           0.091041           1.610311           5.401630
    5    4        14.400000      -112.8510           0.917666           0.917666           3.883070
    3    2         6.200000       -58.1113           0.763917           0.763917           4.077671
 

  Adding cutoff potential to free-atom effective potential.
  Creating atomic-like basis functions for current effective potential.

  Species H                   :

  List of atomic basis orbitals and eigenvalues:
    n    l      energy [Ha]    energy [eV]    outer radius [A]
    1    0        -0.238386        -6.4868       5.373006


  Species C                   :

  List of atomic basis orbitals and eigenvalues:
    n    l      energy [Ha]    energy [eV]    outer radius [A]
    1    0       -10.049212      -273.4530       1.934409
    2    0        -0.504761       -13.7352       5.271162
    2    1        -0.193631        -5.2690       5.401630

  Assembling full basis from fixed parts.
  | Species H :   atomic orbital   1 s accepted.
  | Species H :    hydro orbital   2 s accepted.
  | Species H :    hydro orbital   1 s accepted.
  | Species H :    hydro orbital   2 s accepted.
  | Species H :    hydro orbital   2 p accepted.
  | Species H :    hydro orbital   2 p accepted.
  | Species H :    hydro orbital   3 d accepted.
  | Species C :   atomic orbital   1 s accepted.
  | Species C :    hydro orbital   2 s accepted.
  | Species C :   atomic orbital   2 s accepted.
  | Species C :    hydro orbital   3 s accepted.
  | Species C :    hydro orbital   3 p accepted.
  | Species C :   atomic orbital   2 p accepted.
  | Species C :    hydro orbital   2 p accepted.
  | Species C :    hydro orbital   3 d accepted.
  | Species C :    hydro orbital   3 d accepted.
  | Species C :    hydro orbital   4 f accepted.
  | Species C :    hydro orbital   5 g accepted.
 
  Basis size parameters after reduction:
  | Total number of radial functions:       18
  | Total number of basis functions :      960
 
  Per-task memory consumption for arrays in subroutine allocate_ext:
  |           4.436216MB.
  Testing on-site integration grid accuracy.
  |  Species  Function  <phi|h_atom|phi> (log., in eV)  <phi|h_atom|phi> (rad., in eV)
           1        1                 -6.4870767962                 -6.4871688290
           1        2                 13.5032046589                 13.5028982997
           1        3                 32.8195184817                 32.8119941656
           1        4                 33.8513856511                 33.7670005767 ***
           1        5                 28.8544614965                 28.8544615203
           1        6                 59.6326952547                 59.6327656460
           1        7                 60.2719308513                 60.2719305949
           2        8               -273.4529726040               -273.4529710464
           2        9                -10.7721037319                -10.7721022101
           2       10                 17.6044132601                 17.6044162063
           2       11                 53.7706460658                 53.7706913770
           2       12                 15.0973290362                 15.0973256030
           2       13                  3.8545134692                  3.8545724687
           2       14                 12.1156992592                 12.1182024431
           2       15                 29.4352039302                 29.4352041816
           2       16                 54.8741144708                 54.8740268729
           2       17                 59.3556032049                 59.3556031382
           2       18                 93.4551837154                 93.4551838009
 * Note: Onsite integrals marked "***" above are less accurate than
 * onsite_accuracy_threshold =    0.03000 eV. Usually, this is harmless.
 * When in doubt, tighten the "radial" and/or "radial_multiplier" flags to check.

  Preparing densities etc. for the partition functions (integrals / Hartree potential).

  Preparations completed.
  max(cpu_time)          :      0.197 s.
  Wall clock time (cpu1) :      0.193 s.
------------------------------------------------------------

------------------------------------------------------------
          Begin self-consistency loop: Initialization.

          Date     :  20210620, Time     :  173533.655
------------------------------------------------------------

  Initializing index lists of integration centers etc. from given atomic structure:
  | Number of centers in hartree potential         :        32
  | Number of centers in hartree multipole         :        32
  | Number of centers in electron density summation:        32
  | Number of centers in basis integrals           :        32
  | Number of centers in integrals                 :        32
  | Number of centers in hamiltonian               :        32
  * Using 56 tasks for Scalapack Eigenvalue solver.
  Detailed listing of tasks and assigned k-points:
  (for non-periodic systems, the "k-point" denotes an internal label only)
   Task     0 k-point     1 on d001
   Task     1 k-point     1 on d001
   Task     2 k-point     1 on d001
   Task     3 k-point     1 on d001
   Task     4 k-point     1 on d001
   Task     5 k-point     1 on d001
   Task     6 k-point     1 on d001
   Task     7 k-point     1 on d001
   Task     8 k-point     1 on d001
   Task     9 k-point     1 on d001
   Task    10 k-point     1 on d001
   Task    11 k-point     1 on d001
   Task    12 k-point     1 on d001
   Task    13 k-point     1 on d001
   Task    14 k-point     1 on d001
   Task    15 k-point     1 on d001
   Task    16 k-point     1 on d001
   Task    17 k-point     1 on d001
   Task    18 k-point     1 on d001
   Task    19 k-point     1 on d001
   Task    20 k-point     1 on d001
   Task    21 k-point     1 on d001
   Task    22 k-point     1 on d001
   Task    23 k-point     1 on d001
   Task    24 k-point     1 on d001
   Task    25 k-point     1 on d001
   Task    26 k-point     1 on d001
   Task    27 k-point     1 on d001
   Task    28 k-point     1 on d001
   Task    29 k-point     1 on d001
   Task    30 k-point     1 on d001
   Task    31 k-point     1 on d001
   Task    32 k-point     1 on d001
   Task    33 k-point     1 on d001
   Task    34 k-point     1 on d001
   Task    35 k-point     1 on d001
   Task    36 k-point     1 on d001
   Task    37 k-point     1 on d001
   Task    38 k-point     1 on d001
   Task    39 k-point     1 on d001
   Task    40 k-point     1 on d001
   Task    41 k-point     1 on d001
   Task    42 k-point     1 on d001
   Task    43 k-point     1 on d001
   Task    44 k-point     1 on d001
   Task    45 k-point     1 on d001
   Task    46 k-point     1 on d001
   Task    47 k-point     1 on d001
   Task    48 k-point     1 on d001
   Task    49 k-point     1 on d001
   Task    50 k-point     1 on d001
   Task    51 k-point     1 on d001
   Task    52 k-point     1 on d001
   Task    53 k-point     1 on d001
   Task    54 k-point     1 on d001
   Task    55 k-point     1 on d001
  Tasks:    56 split into      8 X      7 BLACS grid
  Calculating block size based on n_basis =          960 max_nprow =            8 max_npcol =            7
  ScaLAPACK block size set to:           16
  Allocating        0.147 MB for ovlp
  Allocating        0.147 MB for ham
  Allocating        0.147 MB for eigenvec
  Required Scalapack workspace - INTEGER:            1 REAL:             1
  Partitioning the integration grid into batches with parallel hashing+maxmin method.
  | Number of batches:     4745
  | Maximal batch size:     200
  | Minimal batch size:       7
  | Average batch size:     112.742
  | Standard deviation of batch sizes:      28.572

  Integration load balanced across     56 MPI tasks.
  Work distribution over tasks is as follows:
  Task      0 has       9657 integration points.
  Task      1 has       9561 integration points.
  Task      2 has       9524 integration points.
  Task      3 has       9569 integration points.
  Task      4 has       9567 integration points.
  Task      5 has       9556 integration points.
  Task      6 has       9552 integration points.
  Task      7 has       9576 integration points.
  Task      8 has       9563 integration points.
  Task      9 has       9488 integration points.
  Task     10 has       9641 integration points.
  Task     11 has       9469 integration points.
  Task     12 has       9562 integration points.
  Task     13 has       9488 integration points.
  Task     14 has       9634 integration points.
  Task     15 has       9655 integration points.
  Task     16 has       9469 integration points.
  Task     17 has       9656 integration points.
  Task     18 has       9498 integration points.
  Task     19 has       9493 integration points.
  Task     20 has       9489 integration points.
  Task     21 has       9568 integration points.
  Task     22 has       9601 integration points.
  Task     23 has       9519 integration points.
  Task     24 has       9604 integration points.
  Task     25 has       9499 integration points.
  Task     26 has       9513 integration points.
  Task     27 has       9509 integration points.
  Task     28 has       9652 integration points.
  Task     29 has       9605 integration points.
  Task     30 has       9514 integration points.
  Task     31 has       9648 integration points.
  Task     32 has       9477 integration points.
  Task     33 has       9611 integration points.
  Task     34 has       9447 integration points.
  Task     35 has       9585 integration points.
  Task     36 has       9603 integration points.
  Task     37 has       9526 integration points.
  Task     38 has       9590 integration points.
  Task     39 has       9526 integration points.
  Task     40 has       9501 integration points.
  Task     41 has       9488 integration points.
  Task     42 has       9590 integration points.
  Task     43 has       9609 integration points.
  Task     44 has       9458 integration points.
  Task     45 has       9651 integration points.
  Task     46 has       9462 integration points.
  Task     47 has       9589 integration points.
  Task     48 has       9497 integration points.
  Task     49 has       9626 integration points.
  Task     50 has       9618 integration points.
  Task     51 has       9416 integration points.
  Task     52 has       9710 integration points.
  Task     53 has       9476 integration points.
  Task     54 has       9554 integration points.
  Task     55 has       9451 integration points.
  Initializing partition tables, free-atom densities, potentials, etc. across the integration grid (initialize_grid_storage).
  | initialize_grid_storage: Actual outermost partition radius vs. multipole_radius_free
  | (-- VB: in principle, multipole_radius_free should be larger, hence this output)
  | Species        1: Confinement radius =              6.000000000000000 AA, multipole_radius_free =              6.071692442739658 AA.
  | Species        1: outer_partition_radius set to              6.071692442739658 AA .
  | Species        2: Confinement radius =              6.000000000000000 AA, multipole_radius_free =              6.029870734432609 AA.
  | Species        2: outer_partition_radius set to              6.029870734432609 AA .
  | The sparse table of interatomic distances needs     12.0360 kbyte instead of     8.1920 kbyte of memory.
  | Using the partition_type stratmann_smoother will reduce your memory usage.
  | Net number of integration points:   534960
  | of which are non-zero points    :   433096
  Renormalizing the initial density to the exact electron count on the 3D integration grid.
  | Initial density: Formal number of electrons (from input files) :     132.0000000000
  | Integrated number of electrons on 3D grid     :     131.9994128010
  | Charge integration error                      :      -0.0005871990
  | Normalization factor for density and gradient :       1.0000044485
  Obtaining max. number of non-zero basis functions in each batch (get_n_compute_maxes).
  | Maximal number of non-zero basis functions:      870
  Selecting the method for density update.
  Loop over occupied states selected for charge density update.
  Hamiltonian matrix size:
  | Size of matrix non-packed:                461280
  | Size of matrix packed:          453842
  Allocating        1.106 MB for KS_eigenvector
  use_local_index: Max. local matrix size =       430721
  Task:     0 matrix size:      96141
  Task:     1 matrix size:     149331
  Task:     2 matrix size:     158766
  Task:     3 matrix size:     157506
  Task:     4 matrix size:     211791
  Task:     5 matrix size:     262902
  Task:     6 matrix size:     328782
  Task:     7 matrix size:     310276
  Task:     8 matrix size:     233519
  Task:     9 matrix size:     396888
  Task:    10 matrix size:     294327
  Task:    11 matrix size:     292826
  Task:    12 matrix size:     416872
  Task:    13 matrix size:     425486
  Task:    14 matrix size:     132355
  Task:    15 matrix size:     147153
  Task:    16 matrix size:     133903
  Task:    17 matrix size:     327117
  Task:    18 matrix size:     391914
  Task:    19 matrix size:     413519
  Task:    20 matrix size:     333531
  Task:    21 matrix size:     230860
  Task:    22 matrix size:     162165
  Task:    23 matrix size:     150387
  Task:    24 matrix size:     405522
  Task:    25 matrix size:     291492
  Task:    26 matrix size:     356151
  Task:    27 matrix size:     256293
  Task:    28 matrix size:     215243
  Task:    29 matrix size:     359536
  Task:    30 matrix size:     405522
  Task:    31 matrix size:     149292
  Task:    32 matrix size:     254360
  Task:    33 matrix size:     277770
  Task:    34 matrix size:     159330
  Task:    35 matrix size:     315873
  Task:    36 matrix size:     417619
  Task:    37 matrix size:     391914
  Task:    38 matrix size:     179101
  Task:    39 matrix size:     212193
  Task:    40 matrix size:     180295
  Task:    41 matrix size:     161027
  Task:    42 matrix size:     430721
  Task:    43 matrix size:     376647
  Task:    44 matrix size:     358033
  Task:    45 matrix size:     411012
  Task:    46 matrix size:     244612
  Task:    47 matrix size:     345914
  Task:    48 matrix size:     234899
  Task:    49 matrix size:     317326
  Task:    50 matrix size:     191857
  Task:    51 matrix size:     155400
  Task:    52 matrix size:     254632
  Task:    53 matrix size:     164894
  Task:    54 matrix size:     143916
  Task:    55 matrix size:      92665
  Integrating Hamiltonian matrix: batch-based integration.
  Time summed over all CPUs for integration: real work       78.575 s, elapsed      140.596 s
  Time get_set_sparse_local_matrix_scalapack:     0.011448 s
  Start compute_balanced_batch_distribution
  Done load balancing, time needed:      0.005 s
  Integrating overlap matrix with loadbalancing
  Time summed over all CPUs for integration: real work       20.975 s, elapsed       24.941 s
  Time get_set_full_local_matrix_scalapack:     0.010174 s

  Updating Kohn-Sham eigenvalues and eigenvectors using ELSI and the ELPA eigensolver.
  Overlap matrix is not singular
  | Lowest and highest eigenvalues :  0.11E+02,  0.93E-04
  Finished singularity check of overlap matrix
  | Time :     0.050 s
  Finished Cholesky decomposition
  | Time :     0.011 s
  Finished transformation to standard eigenproblem
  | Time :     0.006 s
  Starting ELPA eigensolver
  Finished solving standard eigenproblem
  | Time :     0.048 s
  Finished back-transformation of eigenvectors
  | Time :     0.003 s

  Obtaining occupation numbers and chemical potential using ELSI.
  | Chemical potential (Fermi level):    -8.44551851 eV
  Writing Kohn-Sham eigenvalues.

  State    Occupation    Eigenvalue [Ha]    Eigenvalue [eV]
      1       2.00000         -10.171644         -276.78451
      2       2.00000         -10.171644         -276.78451
      3       2.00000         -10.171108         -276.76993
      4       2.00000         -10.171108         -276.76993
      5       2.00000         -10.170079         -276.74192
      6       2.00000         -10.170079         -276.74192
      7       2.00000         -10.169859         -276.73594
      8       2.00000         -10.169859         -276.73593
      9       2.00000         -10.169223         -276.71864
     10       2.00000         -10.169223         -276.71864
     11       2.00000         -10.169214         -276.71839
     12       2.00000         -10.169214         -276.71839
     13       2.00000         -10.165295         -276.61175
     14       2.00000         -10.165295         -276.61174
     15       2.00000         -10.162529         -276.53648
     16       2.00000         -10.162482         -276.53521
     17       2.00000         -10.162263         -276.52925
     18       2.00000         -10.162178         -276.52693
     19       2.00000         -10.161886         -276.51900
     20       2.00000         -10.161848         -276.51796
     21       2.00000          -1.015808          -27.64153
     22       2.00000          -0.995888          -27.09949
     23       2.00000          -0.968526          -26.35494
     24       2.00000          -0.951767          -25.89889
     25       2.00000          -0.935190          -25.44782
     26       2.00000          -0.886843          -24.13224
     27       2.00000          -0.882499          -24.01402
     28       2.00000          -0.881276          -23.98075
     29       2.00000          -0.871635          -23.71839
     30       2.00000          -0.837135          -22.77961
     31       2.00000          -0.781067          -21.25391
     32       2.00000          -0.776598          -21.13230
     33       2.00000          -0.762900          -20.75957
     34       2.00000          -0.753778          -20.51135
     35       2.00000          -0.741415          -20.17493
     36       2.00000          -0.692678          -18.84874
     37       2.00000          -0.678518          -18.46342
     38       2.00000          -0.666401          -18.13369
     39       2.00000          -0.663342          -18.05045
     40       2.00000          -0.634054          -17.25350
     41       2.00000          -0.632196          -17.20292
     42       2.00000          -0.626030          -17.03514
     43       2.00000          -0.607034          -16.51822
     44       2.00000          -0.594825          -16.18602
     45       2.00000          -0.590068          -16.05656
     46       2.00000          -0.582725          -15.85676
     47       2.00000          -0.571918          -15.56267
     48       2.00000          -0.570024          -15.51114
     49       2.00000          -0.552965          -15.04693
     50       2.00000          -0.536370          -14.59538
     51       2.00000          -0.533515          -14.51768
     52       2.00000          -0.526239          -14.31969
     53       2.00000          -0.523608          -14.24811
     54       2.00000          -0.511150          -13.90910
     55       2.00000          -0.510182          -13.88277
     56       2.00000          -0.510091          -13.88028
     57       2.00000          -0.486177          -13.22955
     58       2.00000          -0.481885          -13.11277
     59       2.00000          -0.481367          -13.09865
     60       2.00000          -0.458706          -12.48203
     61       2.00000          -0.452921          -12.32460
     62       2.00000          -0.399891          -10.88157
     63       2.00000          -0.398782          -10.85141
     64       2.00000          -0.397563          -10.81823
     65       2.00000          -0.392658          -10.68478
     66       2.00000          -0.343725           -9.35325
     67       0.00000          -0.267742           -7.28563
     68       0.00000          -0.221187           -6.01880
     69       0.00000          -0.210461           -5.72694
     70       0.00000          -0.207621           -5.64965
     71       0.00000          -0.206687           -5.62424
     72       0.00000          -0.140093           -3.81213
     73       0.00000          -0.135068           -3.67538
     74       0.00000          -0.090923           -2.47413
     75       0.00000          -0.075272           -2.04825
     76       0.00000          -0.060492           -1.64606
     77       0.00000          -0.059595           -1.62165
     78       0.00000          -0.050146           -1.36456
     79       0.00000          -0.048756           -1.32672
     80       0.00000          -0.041897           -1.14009
     81       0.00000          -0.028406           -0.77296
     82       0.00000          -0.019582           -0.53284
     83       0.00000          -0.015224           -0.41426
     84       0.00000          -0.004461           -0.12139
     85       0.00000          -0.003405           -0.09267
     86       0.00000           0.002132            0.05803
     87       0.00000           0.008976            0.24424
     88       0.00000           0.011891            0.32356
     89       0.00000           0.013774            0.37481
     90       0.00000           0.016234            0.44176
     91       0.00000           0.021594            0.58760
     92       0.00000           0.027022            0.73532
     93       0.00000           0.030175            0.82110
     94       0.00000           0.030385            0.82681
     95       0.00000           0.045149            1.22858
     96       0.00000           0.045472            1.23736
     97       0.00000           0.047963            1.30514
     98       0.00000           0.060871            1.65639
     99       0.00000           0.066546            1.81082
    100       0.00000           0.067223            1.82924
    101       0.00000           0.069449            1.88981
    102       0.00000           0.072366            1.96919
    103       0.00000           0.073053            1.98787
    104       0.00000           0.073421            1.99789
    105       0.00000           0.090052            2.45045
    106       0.00000           0.090446            2.46116
    107       0.00000           0.094252            2.56472
    108       0.00000           0.099352            2.70350
    109       0.00000           0.099643            2.71143
    110       0.00000           0.106299            2.89254
    111       0.00000           0.108133            2.94244
    112       0.00000           0.112395            3.05841
    113       0.00000           0.113072            3.07684
    114       0.00000           0.117374            3.19390
    115       0.00000           0.123421            3.35846
    116       0.00000           0.138075            3.75722
    117       0.00000           0.143702            3.91033
    118       0.00000           0.144912            3.94325
    119       0.00000           0.148122            4.03061
    120       0.00000           0.149894            4.07883
    121       0.00000           0.152021            4.13669
    122       0.00000           0.153950            4.18919
    123       0.00000           0.155708            4.23702
    124       0.00000           0.161329            4.38997
    125       0.00000           0.169789            4.62019
    126       0.00000           0.171924            4.67830
    127       0.00000           0.173550            4.72253
    128       0.00000           0.175245            4.76865
    129       0.00000           0.189975            5.16949
    130       0.00000           0.191052            5.19880
    131       0.00000           0.199311            5.42354
    132       0.00000           0.202845            5.51969
    133       0.00000           0.205293            5.58630
    134       0.00000           0.211782            5.76288
    135       0.00000           0.215753            5.87095
    136       0.00000           0.217392            5.91554
    137       0.00000           0.223016            6.06858
    138       0.00000           0.226079            6.15193
    139       0.00000           0.233492            6.35365
    140       0.00000           0.237759            6.46975
    141       0.00000           0.238277            6.48384
    142       0.00000           0.244942            6.66520
    143       0.00000           0.250735            6.82284
    144       0.00000           0.260120            7.07822

  Highest occupied state (VBM) at     -9.35324651 eV
  | Occupation number:      2.00000000

  Lowest unoccupied state (CBM) at    -7.28562677 eV
  | Occupation number:      0.00000000

  Overall HOMO-LUMO gap:      2.06761974 eV.
  Calculating total energy contributions from superposition of free atom densities.

  Total energy components:
  | Sum of eigenvalues            :        -465.99192927 Ha      -12680.28556125 eV
  | XC energy correction          :        -110.22457728 Ha       -2999.36335366 eV
  | XC potential correction       :         141.57954067 Ha        3852.57531843 eV
  | Free-atom electrostatic energy:        -335.36348774 Ha       -9125.70481209 eV
  | Hartree energy correction     :           0.00000000 Ha           0.00000000 eV
  | Entropy correction            :           0.00000000 Ha           0.00000000 eV
  | ---------------------------
  | Total energy                  :        -770.00045362 Ha      -20952.77840857 eV
  | Total energy, T -> 0          :        -770.00045362 Ha      -20952.77840857 eV  <-- do not rely on this value for anything but (periodic) metals
  | Electronic free energy        :        -770.00045362 Ha      -20952.77840857 eV

  Derived energy quantities:
  | Kinetic energy                :         762.76736108 Ha       20755.95594651 eV
  | Electrostatic energy          :       -1422.54323742 Ha      -38709.37100142 eV
  | Energy correction for multipole
  | error in Hartree potential    :           0.00000000 Ha           0.00000000 eV
  | Sum of eigenvalues per atom                           :        -396.25892379 eV
  | Total energy (T->0) per atom                          :        -654.77432527 eV  <-- do not rely on this value for anything but (periodic) metals
  | Electronic free energy per atom                       :        -654.77432527 eV
  Initialize hartree_potential_storage
  Max. number of atoms included in rho_multipole:           32

  End scf initialization - timings             :  max(cpu_time)    wall_clock(cpu1)
  | Time for scf. initialization               :        4.049 s           4.113 s
  | Boundary condition initialization          :        0.000 s           0.003 s
  | Integration                                :        2.993 s           2.999 s
  | Solution of K.-S. eqns.                    :        0.122 s           0.141 s
  | Grid partitioning                          :        0.507 s           0.511 s
  | Preloading free-atom quantities on grid    :        0.013 s           0.016 s
  | Free-atom superposition energy             :        0.035 s           0.036 s
  | Total energy evaluation                    :        0.001 s           0.005 s

  Partial memory accounting:
  | Current value for overall tracked memory usage on task 0  :           1.934 MB
  | Peak value for overall tracked memory usage on task 0     :          21.307 MB after allocating zora_vector2
  | Largest tracked array allocation on task 0 so far         :           6.055 MB  when allocating hamiltonian_shell
  Note:  These values currently only include a subset of arrays which are explicitly tracked.
  The "true" memory usage will be greater.
------------------------------------------------------------

------------------------------------------------------------
          Begin self-consistency iteration #    1

  Date     :  20210620, Time     :  173537.771
------------------------------------------------------------
  Evaluating new KS density.
  Integration grid: deviation in total charge (<rho> - N_e) =   5.684342E-14
  Pulay mixing of updated and previous charge densities.

  Evaluating partitioned Hartree potential by multipole expansion.
  | Analytical far-field extrapolation by fixed multipoles:
  | Hartree multipole sum: apparent total charge =  -0.593103E-03
  Summing up the Hartree potential with load balancing.
  Time summed over all CPUs for potential: real work       12.207 s, elapsed       18.816 s
  | RMS charge density error from multipole expansion :   0.107408E-01

  Start compute_balanced_batch_distribution
  Done load balancing, time needed:      0.004 s
  Integrating Hamiltonian matrix: batch-based integration with load balancing
  Time summed over all CPUs for integration: real work       85.685 s, elapsed       94.077 s
  Time get_set_full_local_matrix_scalapack:     0.010098 s
  Start compute_balanced_batch_distribution
  Done load balancing, time needed:      0.004 s

  Updating Kohn-Sham eigenvalues and eigenvectors using ELSI and the ELPA eigensolver.
  Finished transformation to standard eigenproblem
  | Time :     0.008 s
  Starting ELPA eigensolver
  Finished solving standard eigenproblem
  | Time :     0.044 s
  Finished back-transformation of eigenvectors
  | Time :     0.002 s

  Obtaining occupation numbers and chemical potential using ELSI.
  | Chemical potential (Fermi level):    -4.13490461 eV
  Writing Kohn-Sham eigenvalues.

  State    Occupation    Eigenvalue [Ha]    Eigenvalue [eV]
      1       2.00000          -9.982317         -271.63266
      2       2.00000          -9.982314         -271.63259
      3       2.00000          -9.981744         -271.61707
      4       2.00000          -9.981741         -271.61698
      5       2.00000          -9.977114         -271.49109
      6       2.00000          -9.977114         -271.49108
      7       2.00000          -9.968108         -271.24601
      8       2.00000          -9.968107         -271.24601
      9       2.00000          -9.951019         -270.78101
     10       2.00000          -9.951019         -270.78101
     11       2.00000          -9.951010         -270.78075
     12       2.00000          -9.951010         -270.78075
     13       2.00000          -9.948052         -270.70028
     14       2.00000          -9.948052         -270.70027
     15       2.00000          -9.947455         -270.68402
     16       2.00000          -9.947455         -270.68402
     17       2.00000          -9.947374         -270.68183
     18       2.00000          -9.947374         -270.68183
     19       2.00000          -9.946352         -270.65400
     20       2.00000          -9.946352         -270.65400
     21       2.00000          -0.872468          -23.74107
     22       2.00000          -0.845341          -23.00289
     23       2.00000          -0.820783          -22.33465
     24       2.00000          -0.797699          -21.70648
     25       2.00000          -0.791451          -21.53648
     26       2.00000          -0.740687          -20.15513
     27       2.00000          -0.738519          -20.09612
     28       2.00000          -0.735916          -20.02529
     29       2.00000          -0.725280          -19.73589
     30       2.00000          -0.688027          -18.72217
     31       2.00000          -0.642652          -17.48745
     32       2.00000          -0.635671          -17.29750
     33       2.00000          -0.625234          -17.01349
     34       2.00000          -0.613538          -16.69522
     35       2.00000          -0.597568          -16.26065
     36       2.00000          -0.553884          -15.07195
     37       2.00000          -0.543327          -14.78468
     38       2.00000          -0.539103          -14.66974
     39       2.00000          -0.520589          -14.16594
     40       2.00000          -0.506438          -13.78089
     41       2.00000          -0.497097          -13.52671
     42       2.00000          -0.486028          -13.22549
     43       2.00000          -0.470227          -12.79554
     44       2.00000          -0.464725          -12.64582
     45       2.00000          -0.447932          -12.18886
     46       2.00000          -0.438025          -11.91925
     47       2.00000          -0.434472          -11.82259
     48       2.00000          -0.429851          -11.69684
     49       2.00000          -0.423393          -11.52110
     50       2.00000          -0.418918          -11.39935
     51       2.00000          -0.411416          -11.19519
     52       2.00000          -0.393107          -10.69699
     53       2.00000          -0.391449          -10.65186
     54       2.00000          -0.387070          -10.53271
     55       2.00000          -0.379118          -10.31631
     56       2.00000          -0.372994          -10.14969
     57       2.00000          -0.361336           -9.83246
     58       2.00000          -0.346215           -9.42098
     59       2.00000          -0.341908           -9.30380
     60       2.00000          -0.332820           -9.05649
     61       2.00000          -0.331378           -9.01726
     62       2.00000          -0.276905           -7.53496
     63       2.00000          -0.275966           -7.50942
     64       2.00000          -0.273727           -7.44850
     65       2.00000          -0.267498           -7.27900
     66       2.00000          -0.217391           -5.91551
     67       0.00000          -0.146013           -3.97321
     68       0.00000          -0.100465           -2.73379
     69       0.00000          -0.091625           -2.49323
     70       0.00000          -0.084726           -2.30550
     71       0.00000          -0.081193           -2.20938
     72       0.00000          -0.029853           -0.81235
     73       0.00000          -0.020869           -0.56787
     74       0.00000          -0.019758           -0.53763
     75       0.00000          -0.018422           -0.50128
     76       0.00000          -0.014184           -0.38598
     77       0.00000          -0.005031           -0.13689
     78       0.00000          -0.003890           -0.10586
     79       0.00000           0.015799            0.42991
     80       0.00000           0.016587            0.45134
     81       0.00000           0.033090            0.90042
     82       0.00000           0.033411            0.90915
     83       0.00000           0.044840            1.22017
     84       0.00000           0.053547            1.45709
     85       0.00000           0.061467            1.67261
     86       0.00000           0.067456            1.83556
     87       0.00000           0.073241            1.99299
     88       0.00000           0.075089            2.04327
     89       0.00000           0.083622            2.27546
     90       0.00000           0.096388            2.62286
     91       0.00000           0.098917            2.69166
     92       0.00000           0.106876            2.90824
     93       0.00000           0.107802            2.93344
     94       0.00000           0.108668            2.95701
     95       0.00000           0.114615            3.11882
     96       0.00000           0.115922            3.15440
     97       0.00000           0.124638            3.39158
     98       0.00000           0.129299            3.51841
     99       0.00000           0.136173            3.70547
    100       0.00000           0.136865            3.72429
    101       0.00000           0.141838            3.85962
    102       0.00000           0.142152            3.86815
    103       0.00000           0.142604            3.88045
    104       0.00000           0.149826            4.07697
    105       0.00000           0.150424            4.09324
    106       0.00000           0.152584            4.15203
    107       0.00000           0.164670            4.48091
    108       0.00000           0.165888            4.51405
    109       0.00000           0.167189            4.54945
    110       0.00000           0.169588            4.61472
    111       0.00000           0.180002            4.89812
    112       0.00000           0.184164            5.01137
    113       0.00000           0.187217            5.09444
    114       0.00000           0.197170            5.36527
    115       0.00000           0.197455            5.37302
    116       0.00000           0.201304            5.47776
    117       0.00000           0.204331            5.56012
    118       0.00000           0.207118            5.63597
    119       0.00000           0.211515            5.75560
    120       0.00000           0.214171            5.82788
    121       0.00000           0.220917            6.01147
    122       0.00000           0.226849            6.17287
    123       0.00000           0.234523            6.38169
    124       0.00000           0.235355            6.40434
    125       0.00000           0.242992            6.61214
    126       0.00000           0.243477            6.62534
    127       0.00000           0.250654            6.82064
    128       0.00000           0.251861            6.85349
    129       0.00000           0.256047            6.96738
    130       0.00000           0.259944            7.07344
    131       0.00000           0.260715            7.09441
    132       0.00000           0.261569            7.11766
    133       0.00000           0.278457            7.57721
    134       0.00000           0.280634            7.63645
    135       0.00000           0.281295            7.65442
    136       0.00000           0.290526            7.90560
    137       0.00000           0.300082            8.16565
    138       0.00000           0.302283            8.22554
    139       0.00000           0.306708            8.34594
    140       0.00000           0.312517            8.50402
    141       0.00000           0.321878            8.75875
    142       0.00000           0.324203            8.82200
    143       0.00000           0.328258            8.93236
    144       0.00000           0.331505            9.02072

  Highest occupied state (VBM) at     -5.91550601 eV
  | Occupation number:      2.00000000

  Lowest unoccupied state (CBM) at    -3.97321146 eV
  | Occupation number:      0.00000000

  Overall HOMO-LUMO gap:      1.94229455 eV.

  Total energy components:
  | Sum of eigenvalues            :        -445.21245082 Ha      -12114.84718344 eV
  | XC energy correction          :        -111.61821662 Ha       -3037.28620976 eV
  | XC potential correction       :         143.38907815 Ha        3901.81533871 eV
  | Free-atom electrostatic energy:        -335.36348774 Ha       -9125.70481209 eV
  | Hartree energy correction     :         -20.52542666 Ha        -558.52527677 eV
  | Entropy correction            :           0.00000000 Ha           0.00000000 eV
  | ---------------------------
  | Total energy                  :        -769.33050368 Ha      -20934.54814334 eV
  | Total energy, T -> 0          :        -769.33050368 Ha      -20934.54814334 eV  <-- do not rely on this value for anything but (periodic) metals
  | Electronic free energy        :        -769.33050368 Ha      -20934.54814334 eV

  Derived energy quantities:
  | Kinetic energy                :         768.93076167 Ha       20923.67060978 eV
  | Electrostatic energy          :       -1426.64304873 Ha      -38820.93254336 eV
  | Energy correction for multipole
  | error in Hartree potential    :          -0.04852680 Ha          -1.32048132 eV
  | Sum of eigenvalues per atom                           :        -378.58897448 eV
  | Total energy (T->0) per atom                          :        -654.20462948 eV  <-- do not rely on this value for anything but (periodic) metals
  | Electronic free energy per atom                       :        -654.20462948 eV

  Self-consistency convergence accuracy:
  | Change of charge density      :  0.8815E+00
  | Change of sum of eigenvalues  :  0.5654E+03 eV
  | Change of total energy        :  0.1823E+02 eV

  End self-consistency iteration #     1       :  max(cpu_time)    wall_clock(cpu1)
  | Time for this iteration                    :        2.742 s           2.749 s
  | Charge density update                      :        0.611 s           0.613 s
  | Density mixing                             :        0.002 s           0.003 s
  | Hartree multipole update                   :        0.007 s           0.008 s
  | Hartree multipole summation                :        0.342 s           0.345 s
  | Integration                                :        1.684 s           1.683 s
  | Solution of K.-S. eqns.                    :        0.080 s           0.081 s
  | Total energy evaluation                    :        0.000 s           0.000 s

  Partial memory accounting:
  | Current value for overall tracked memory usage on task 0  :           1.934 MB
  | Peak value for overall tracked memory usage on task 0     :          21.668 MB after allocating zora_vector2
  | Largest tracked array allocation on task 0 so far         :           6.055 MB  when allocating hamiltonian_shell
  Note:  These values currently only include a subset of arrays which are explicitly tracked.
  The "true" memory usage will be greater.
------------------------------------------------------------

------------------------------------------------------------
          Begin self-consistency iteration #    2

  Date     :  20210620, Time     :  173540.521
------------------------------------------------------------
  Evaluating new KS density.
  Integration grid: deviation in total charge (<rho> - N_e) =   2.842171E-14
  Pulay mixing of updated and previous charge densities.

  Evaluating partitioned Hartree potential by multipole expansion.
  | Analytical far-field extrapolation by fixed multipoles:
  | Hartree multipole sum: apparent total charge =  -0.593255E-03
  Summing up the Hartree potential with load balancing.
  Time summed over all CPUs for potential: real work       12.303 s, elapsed       14.443 s
  | RMS charge density error from multipole expansion :   0.189841E-01

  Integrating Hamiltonian matrix: batch-based integration with load balancing
  Time summed over all CPUs for integration: real work       86.727 s, elapsed       90.340 s
  Time get_set_full_local_matrix_scalapack:     0.013753 s

  Updating Kohn-Sham eigenvalues and eigenvectors using ELSI and the ELPA eigensolver.
  Finished transformation to standard eigenproblem
  | Time :     0.006 s
  Starting ELPA eigensolver
  Finished solving standard eigenproblem
  | Time :     0.044 s
  Finished back-transformation of eigenvectors
  | Time :     0.002 s

  Obtaining occupation numbers and chemical potential using ELSI.
  | Chemical potential (Fermi level):    -3.22477775 eV
  Highest occupied state (VBM) at     -4.78469290 eV
  | Occupation number:      2.00000000

  Lowest unoccupied state (CBM) at    -2.85285160 eV
  | Occupation number:      0.00000000

  Overall HOMO-LUMO gap:      1.93184129 eV.

  Checking to see if s.c.f. parameters should be adjusted.

  Total energy components:
  | Sum of eigenvalues            :        -438.02638783 Ha      -11919.30446036 eV
  | XC energy correction          :        -112.24211742 Ha       -3054.26341422 eV
  | XC potential correction       :         144.19189388 Ha        3923.66106620 eV
  | Free-atom electrostatic energy:        -335.36348774 Ha       -9125.70481209 eV
  | Hartree energy correction     :         -27.80338579 Ha        -756.56862104 eV
  | Entropy correction            :           0.00000000 Ha           0.00000000 eV
  | ---------------------------
  | Total energy                  :        -769.24348489 Ha      -20932.18024151 eV
  | Total energy, T -> 0          :        -769.24348489 Ha      -20932.18024151 eV  <-- do not rely on this value for anything but (periodic) metals
  | Electronic free energy        :        -769.24348489 Ha      -20932.18024151 eV

  Derived energy quantities:
  | Kinetic energy                :         768.90069455 Ha       20922.85244183 eV
  | Electrostatic energy          :       -1425.90206203 Ha      -38800.76926912 eV
  | Energy correction for multipole
  | error in Hartree potential    :          -0.07953676 Ha          -2.16430527 eV
  | Sum of eigenvalues per atom                           :        -372.47826439 eV
  | Total energy (T->0) per atom                          :        -654.13063255 eV  <-- do not rely on this value for anything but (periodic) metals
  | Electronic free energy per atom                       :        -654.13063255 eV

  Self-consistency convergence accuracy:
  | Change of charge density      :  0.4326E+00
  | Change of sum of eigenvalues  :  0.1955E+03 eV
  | Change of total energy        :  0.2368E+01 eV

  End self-consistency iteration #     2       :  max(cpu_time)    wall_clock(cpu1)
  | Time for this iteration                    :        2.580 s           2.583 s
  | Charge density update                      :        0.613 s           0.613 s
  | Density mixing                             :        0.003 s           0.005 s
  | Hartree multipole update                   :        0.007 s           0.007 s
  | Hartree multipole summation                :        0.260 s           0.260 s
  | Integration                                :        1.616 s           1.616 s
  | Solution of K.-S. eqns.                    :        0.077 s           0.078 s
  | Total energy evaluation                    :        0.000 s           0.002 s

  Partial memory accounting:
  | Current value for overall tracked memory usage on task 0  :           1.934 MB
  | Peak value for overall tracked memory usage on task 0     :          21.668 MB after allocating zora_vector2
  | Largest tracked array allocation on task 0 so far         :           6.055 MB  when allocating hamiltonian_shell
  Note:  These values currently only include a subset of arrays which are explicitly tracked.
  The "true" memory usage will be greater.
------------------------------------------------------------

------------------------------------------------------------
          Begin self-consistency iteration #    3

  Date     :  20210620, Time     :  173543.110
------------------------------------------------------------
  Evaluating new KS density.
  Integration grid: deviation in total charge (<rho> - N_e) =   1.705303E-13
  Pulay mixing of updated and previous charge densities.

  Evaluating partitioned Hartree potential by multipole expansion.
  | Analytical far-field extrapolation by fixed multipoles:
  | Hartree multipole sum: apparent total charge =  -0.592567E-03
  Summing up the Hartree potential with load balancing.
  Time summed over all CPUs for potential: real work       12.299 s, elapsed       14.436 s
  | RMS charge density error from multipole expansion :   0.226016E-01

  Integrating Hamiltonian matrix: batch-based integration with load balancing
  Time summed over all CPUs for integration: real work       86.900 s, elapsed       90.259 s
  Time get_set_full_local_matrix_scalapack:     0.013780 s

  Updating Kohn-Sham eigenvalues and eigenvectors using ELSI and the ELPA eigensolver.
  Finished transformation to standard eigenproblem
  | Time :     0.008 s
  Starting ELPA eigensolver
  Finished solving standard eigenproblem
  | Time :     0.045 s
  Finished back-transformation of eigenvectors
  | Time :     0.002 s

  Obtaining occupation numbers and chemical potential using ELSI.
  | Chemical potential (Fermi level):    -3.21686875 eV
  Highest occupied state (VBM) at     -4.81744170 eV
  | Occupation number:      2.00000000

  Lowest unoccupied state (CBM) at    -2.88760192 eV
  | Occupation number:      0.00000000

  Overall HOMO-LUMO gap:      1.92983978 eV.

  Total energy components:
  | Sum of eigenvalues            :        -438.18669961 Ha      -11923.66676576 eV
  | XC energy correction          :        -112.30051510 Ha       -3055.85249582 eV
  | XC potential correction       :         144.26319503 Ha        3925.60126916 eV
  | Free-atom electrostatic energy:        -335.36348774 Ha       -9125.70481209 eV
  | Hartree energy correction     :         -27.65316456 Ha        -752.48089347 eV
  | Entropy correction            :           0.00000000 Ha           0.00000000 eV
  | ---------------------------
  | Total energy                  :        -769.24067197 Ha      -20932.10369797 eV
  | Total energy, T -> 0          :        -769.24067197 Ha      -20932.10369797 eV  <-- do not rely on this value for anything but (periodic) metals
  | Electronic free energy        :        -769.24067197 Ha      -20932.10369797 eV

  Derived energy quantities:
  | Kinetic energy                :         767.25009736 Ha       20877.93740693 eV
  | Electrostatic energy          :       -1424.19025423 Ha      -38754.18860909 eV
  | Energy correction for multipole
  | error in Hartree potential    :          -0.08999543 Ha          -2.44890037 eV
  | Sum of eigenvalues per atom                           :        -372.61458643 eV
  | Total energy (T->0) per atom                          :        -654.12824056 eV  <-- do not rely on this value for anything but (periodic) metals
  | Electronic free energy per atom                       :        -654.12824056 eV

  Self-consistency convergence accuracy:
  | Change of charge density      :  0.1498E+00
  | Change of sum of eigenvalues  : -0.4362E+01 eV
  | Change of total energy        :  0.7654E-01 eV

  End self-consistency iteration #     3       :  max(cpu_time)    wall_clock(cpu1)
  | Time for this iteration                    :        2.587 s           2.590 s
  | Charge density update                      :        0.616 s           0.617 s
  | Density mixing                             :        0.003 s           0.003 s
  | Hartree multipole update                   :        0.007 s           0.007 s
  | Hartree multipole summation                :        0.260 s           0.260 s
  | Integration                                :        1.614 s           1.615 s
[...]
  |------------------------------------------------------
  | Final ELSI Output
  |------------------------------------------------------
  |
  | Physical Properties
  |   Number of electrons       :        0.13200000E+03
  |   Number of spins           :                     1
  |   Number of k-points        :                     1
  |   Number of states          :                   144
  |
  | Matrix Properties
  |   Matrix format             :           BLACS_DENSE
  |   Number of basis functions :                   960
  |   Matrix sparsity           :        0.21065538E-01
  |
  | Computational Details
  |   Parallel mode             :            MULTI_PROC
  |   Number of MPI tasks       :                    56
  |   Solver requested          :                  ELPA
  |   Number of ELSI calls      :                    16
  |
  |------------------------------------------------------
  | ELSI Project (c)  elsi-interchange.org
  |------------------------------------------------------

------------------------------------------------------------
          Post-processing: scaled ZORA corrections to eigenvalues and total energy.

  Date     :  20210620, Time     :  173616.755
------------------------------------------------------------
  Computing correction matrix for scaled ZORA eigenvalues.
  Evaluating scaled zora correction for each Kohn-Sham eigenstate.
  Evaluating scaled zora correction for each Kohn-Sham eigenstate.
  Time get_set_sparse_local_matrix_scalapack:     2.292247 s
  Writing Kohn-Sham eigenvalues.

  State    Occupation    Eigenvalue [Ha]    Eigenvalue [eV]
      1       2.00000          -9.911482         -269.70513
      2       2.00000          -9.911466         -269.70472
      3       2.00000          -9.911122         -269.69536
      4       2.00000          -9.911103         -269.69483
      5       2.00000          -9.909863         -269.66109
      6       2.00000          -9.909858         -269.66097
      7       2.00000          -9.907666         -269.60130
      8       2.00000          -9.907666         -269.60130
      9       2.00000          -9.897533         -269.32557
     10       2.00000          -9.897533         -269.32557
     11       2.00000          -9.897221         -269.31708
     12       2.00000          -9.897221         -269.31707
     13       2.00000          -9.897067         -269.31289
     14       2.00000          -9.897067         -269.31289
     15       2.00000          -9.896757         -269.30446
     16       2.00000          -9.896757         -269.30446
     17       2.00000          -9.896696         -269.30279
     18       2.00000          -9.896695         -269.30279
     19       2.00000          -9.896223         -269.28993
     20       2.00000          -9.896223         -269.28992
     21       2.00000          -0.820041          -22.31446
     22       2.00000          -0.794907          -21.63051
     23       2.00000          -0.766969          -20.87028
     24       2.00000          -0.745514          -20.28647
     25       2.00000          -0.737865          -20.07834
     26       2.00000          -0.685058          -18.64138
     27       2.00000          -0.683597          -18.60163
     28       2.00000          -0.680395          -18.51450
     29       2.00000          -0.670929          -18.25690
     30       2.00000          -0.630883          -17.16719
     31       2.00000          -0.585050          -15.92002
     32       2.00000          -0.577099          -15.70365
     33       2.00000          -0.569150          -15.48735
     34       2.00000          -0.555942          -15.12794
     35       2.00000          -0.538114          -14.64282
     36       2.00000          -0.495580          -13.48543
     37       2.00000          -0.485741          -13.21770
     38       2.00000          -0.478384          -13.01750
     39       2.00000          -0.460943          -12.54291
     40       2.00000          -0.443649          -12.07230
     41       2.00000          -0.438013          -11.91895
     42       2.00000          -0.428124          -11.64985
     43       2.00000          -0.412845          -11.23407
     44       2.00000          -0.404014          -10.99377
     45       2.00000          -0.387182          -10.53577
     46       2.00000          -0.379599          -10.32942
     47       2.00000          -0.378567          -10.30132
     48       2.00000          -0.374542          -10.19181
     49       2.00000          -0.368507          -10.02757
     50       2.00000          -0.363673           -9.89603
     51       2.00000          -0.349173           -9.50149
     52       2.00000          -0.347619           -9.45918
     53       2.00000          -0.332729           -9.05402
     54       2.00000          -0.330504           -8.99347
     55       2.00000          -0.320701           -8.72671
     56       2.00000          -0.319030           -8.68124
     57       2.00000          -0.311601           -8.47910
     58       2.00000          -0.293422           -7.98441
     59       2.00000          -0.291684           -7.93712
     60       2.00000          -0.282787           -7.69502
     61       2.00000          -0.280673           -7.63750
     62       2.00000          -0.235506           -6.40845
     63       2.00000          -0.234458           -6.37992
     64       2.00000          -0.233802           -6.36206
     65       2.00000          -0.227349           -6.18649
     66       2.00000          -0.175117           -4.76517
     67       0.00000          -0.104083           -2.83225
     68       0.00000          -0.059631           -1.62265
     69       0.00000          -0.050298           -1.36868
     70       0.00000          -0.042208           -1.14855
     71       0.00000          -0.038595           -1.05023
     72       0.00000          -0.007063           -0.19220
     73       0.00000           0.001729            0.04705
     74       0.00000           0.002474            0.06731
     75       0.00000           0.016111            0.43840
     76       0.00000           0.017770            0.48354
     77       0.00000           0.021171            0.57608
     78       0.00000           0.028006            0.76209
     79       0.00000           0.036727            0.99938
     80       0.00000           0.038083            1.03630
     81       0.00000           0.055472            1.50947
     82       0.00000           0.065769            1.78966
     83       0.00000           0.077463            2.10789
     84       0.00000           0.078958            2.14855
     85       0.00000           0.085460            2.32547
     86       0.00000           0.091621            2.49314
     87       0.00000           0.098137            2.67045
     88       0.00000           0.104071            2.83192
     89       0.00000           0.108169            2.94342
     90       0.00000           0.122067            3.32161
     91       0.00000           0.123344            3.35635
     92       0.00000           0.124461            3.38674
     93       0.00000           0.131893            3.58899
     94       0.00000           0.135640            3.69095
     95       0.00000           0.138858            3.77853
     96       0.00000           0.153138            4.16710
     97       0.00000           0.158222            4.30545
     98       0.00000           0.158873            4.32315
     99       0.00000           0.162025            4.40892
    100       0.00000           0.170297            4.63401
    101       0.00000           0.176407            4.80029
    102       0.00000           0.177424            4.82795
    103       0.00000           0.178911            4.86841
    104       0.00000           0.182630            4.96963
    105       0.00000           0.184062            5.00858
    106       0.00000           0.187406            5.09958
    107       0.00000           0.191733            5.21731
    108       0.00000           0.201524            5.48375
    109       0.00000           0.203051            5.52529
    110       0.00000           0.203483            5.53705
    111       0.00000           0.204285            5.55887
    112       0.00000           0.216022            5.87825
    113       0.00000           0.216932            5.90303
    114       0.00000           0.222658            6.05884
    115       0.00000           0.226291            6.15769
    116       0.00000           0.233288            6.34808
    117       0.00000           0.234342            6.37678
    118       0.00000           0.235644            6.41221
    119       0.00000           0.249549            6.79057
    120       0.00000           0.250870            6.82651
    121       0.00000           0.257237            6.99977
    122       0.00000           0.259027            7.04847
    123       0.00000           0.268880            7.31659
    124       0.00000           0.269143            7.32374
    125       0.00000           0.270238            7.35355
    126       0.00000           0.270940            7.37266
    127       0.00000           0.281418            7.65777
    128       0.00000           0.282889            7.69779
    129       0.00000           0.284871            7.75173
    130       0.00000           0.286444            7.79454
    131       0.00000           0.287924            7.83482
    132       0.00000           0.299168            8.14077
    133       0.00000           0.312018            8.49045
    134       0.00000           0.313694            8.53604
    135       0.00000           0.315110            8.57458
    136       0.00000           0.324193            8.82174
    137       0.00000           0.325700            8.86274
    138       0.00000           0.339516            9.23871
    139       0.00000           0.340700            9.27093
    140       0.00000           0.342086            9.30863
    141       0.00000           0.351008            9.55141
    142       0.00000           0.355212            9.66581
    143       0.00000           0.363921            9.90280
    144       0.00000           0.366310            9.96781

  Highest occupied state (VBM) at     -4.76516936 eV
  | Occupation number:      2.00000000

  Lowest unoccupied state (CBM) at    -2.83224827 eV
  | Occupation number:      0.00000000

  Overall HOMO-LUMO gap:      1.93292109 eV.

  Total energy components:
  | Sum of eigenvalues            :        -437.90049063 Ha      -11915.87862331 eV
  | XC energy correction          :        -112.25781093 Ha       -3054.69045629 eV
  | XC potential correction       :         144.20743435 Ha        3924.08394392 eV
  | Free-atom electrostatic energy:        -335.36348774 Ha       -9125.70481209 eV
  | Hartree energy correction     :         -27.75436323 Ha        -755.23464952 eV
  | Entropy correction            :           0.00000000 Ha           0.00000000 eV
  | ---------------------------
  | Total energy                  :        -769.06871818 Ha      -20927.42459729 eV
  | Total energy, T -> 0          :        -769.06871818 Ha      -20927.42459729 eV  <-- do not rely on this value for anything but (periodic) metals
  | Electronic free energy        :        -769.06871818 Ha      -20927.42459729 eV

  Derived energy quantities:
  | Kinetic energy                :         766.79654366 Ha       20865.59558291 eV
  | Electrostatic energy          :       -1423.60745091 Ha      -38738.32972391 eV
  | Energy correction for multipole
  | error in Hartree potential    :          -0.09174454 Ha          -2.49649603 eV
  | Sum of eigenvalues per atom                           :        -372.37120698 eV
  | Total energy (T->0) per atom                          :        -653.98201867 eV  <-- do not rely on this value for anything but (periodic) metals
  | Electronic free energy per atom                       :        -653.98201867 eV
  End evaluation of scaled ZORA corrections.
  | Time for scaled ZORA corrections           :        2.938 s           2.939 s
------------------------------------------------------------

  Energy and forces in a compact form:
  | Total energy uncorrected      :         -0.209274245972879E+05 eV
  | Total energy corrected        :         -0.209274245972879E+05 eV  <-- do not rely on this value for anything but (periodic) metals
  | Electronic free energy        :         -0.209274245972879E+05 eV

  ------------------------------------ 
  Start decomposition of the XC Energy 
  ------------------------------------ 
  X and C from original XC functional choice 
  Hartree-Fock Energy :          0.000000000 Ha              0.000000000 eV
  X Energy            :       -107.835425223 Ha          -2934.351218460 eV
  C Energy            :         -4.422385705 Ha           -120.339237833 eV
  Total XC Energy     :       -112.257810928 Ha          -3054.690456293 eV
  ------------------------------------ 
  LDA X and C from self-consistent density 
  X Energy LDA        :        -97.659287896 Ha          -2657.444432925 eV
  C Energy LDA        :         -8.523072133 Ha           -231.924592921 eV
  ------------------------------------ 
  End decomposition of the XC Energy 
  ------------------------------------ 

------------------------------------------------------------

------------------------------------------------------------------------------
  Final output of selected total energy values:

  The following output summarizes some interesting total energy values
  at the end of a run (AFTER all relaxation, molecular dynamics, etc.).

  | Total energy of the DFT / Hartree-Fock s.c.f. calculation      :         -20927.424597288 eV
  | Final zero-broadening corrected energy (caution - metals only) :         -20927.424597288 eV
  | For reference only, the value of 1 Hartree used in FHI-aims is :             27.211384500 eV

  Before relying on these values, please be sure to understand exactly which
  total energy value is referred to by a given number. Different objects may
  all carry the same name 'total energy'. Definitions:

  Total energy of the DFT / Hartree-Fock s.c.f. calculation:
  | Note that this energy does not include ANY quantities calculated after the
  | s.c.f. cycle, in particular not ANY RPA, MP2, etc. many-body perturbation terms.
  | Scalar relativistic effects have been included in the 'scaled ZORA' approximation.

  Final zero-broadening corrected energy:
  | For metallic systems only, a broadening of the occupation numbers at the Fermi
  | level can be extrapolated back to zero broadening by an electron-gas inspired
  | formula. For all systems that are not real metals, this value can be
  | meaningless and should be avoided.

------------------------------------------------------------------------------
  Methods described in the following list of references were used in this FHI-aims run.
  If you publish the results, please make sure to cite these reference if they apply.
  FHI-aims is an academic code, and for our developers (often, Ph.D. students
  and postdocs), scientific credit in the community is essential.
  Thank you for helping us!

  For any use of FHI-aims, please cite:

    Volker Blum, Ralf Gehrke, Felix Hanke, Paula Havu, Ville Havu,
    Xinguo Ren, Karsten Reuter, and Matthias Scheffler
    'Ab initio molecular simulations with numeric atom-centered orbitals'
    Computer Physics Communications 180, 2175-2196 (2009)
    http://dx.doi.org/10.1016/j.cpc.2009.06.022


  The scalable eigensolver library ELPA was used in your run.
  ELPA is essential especially for large systems on hundreds or thousands of CPUs.
  For ELPA, please cite:

    Andreas Marek, Volker Blum, Rainer Johanni, Ville Havu, Bruno Lang,
    Thomas Auckenthaler, Alexander Heinecke, Hans-Joachim Bungartz, and Hermann Lederer,
    'The ELPA Library - Scalable Parallel Eigenvalue Solutions
    for Electronic Structure Theory and Computational Science'
    The Journal of Physics: Condensed Matter 26, 213201 (2014).
    http://dx.doi.org/10.1088/0953-8984/26/21/213201


  The ELSI infrastructure was used in your run to solve the Kohn-Sham electronic structure.
  Please check out http://elsi-interchange.org to learn more.
  If scalability is important for your project, please acknowledge ELSI by citing:

    V. W-z. Yu, F. Corsetti, A. Garcia, W. P. Huhn, M. Jacquelin, W. Jia,
    B. Lange, L. Lin, J. Lu, W. Mi, A. Seifitokaldani, A. Vazquez-Mayagoitia,
    C. Yang, H. Yang, and V. Blum
    'ELSI: A unified software interface for Kohn-Sham electronic structure solvers'
    Computer Physics Communications 222, 267-285 (2018).
    http://dx.doi.org/10.1016/j.cpc.2017.09.007


  For the real-space grid partitioning and parallelization used in this calculation, please cite:

    Ville Havu, Volker Blum, Paula Havu, and Matthias Scheffler,
    'Efficient O(N) integration for all-electron electronic structure calculation'
    'using numerically tabulated basis functions'
    Journal of Computational Physics 228, 8367-8379 (2009).
    http://dx.doi.org/10.1016/j.jcp.2009.08.008

  Of course, there are many other important community references, e.g., those cited in the
  above references. Our list is limited to references that describe implementations in the
  FHI-aims code. The reason is purely practical (length of this list) - please credit others as well.

------------------------------------------------------------
          Leaving FHI-aims.
          Date     :  20210620, Time     :  173619.740

          Computational steps:
          | Number of self-consistency cycles          :           15
          | Number of SCF (re)initializations          :            1

          Detailed time accounting                     :  max(cpu_time)    wall_clock(cpu1)
          | Total time                                 :       46.273 s          46.458 s
          | Preparation time                           :        0.197 s           0.193 s
          | Boundary condition initalization           :        0.000 s           0.003 s
          | Grid partitioning                          :        0.507 s           0.511 s
          | Preloading free-atom quantities on grid    :        0.013 s           0.016 s
          | Free-atom superposition energy             :        0.035 s           0.036 s
          | Total time for integrations                :       27.269 s          27.275 s
          | Total time for solution of K.-S. equations :        1.287 s           1.311 s
          | Total time for density update              :        9.277 s           9.246 s
          | Total time for mixing                      :        0.072 s           0.076 s
          | Total time for Hartree multipole update    :        0.101 s           0.106 s
          | Total time for Hartree multipole sum       :        3.979 s           3.981 s
          | Total time for total energy evaluation     :        0.005 s           0.029 s
          | Total time for scaled ZORA corrections     :        2.938 s           2.939 s

          Partial memory accounting:
          | Residual value for overall tracked memory usage across tasks :     0.000000 MB (should be 0.000000 MB)
          | Peak values for overall tracked memory usage (after allocating zora_vector2):
          |   Minimum:       21.586 MB (on task 56)
          |   Maximum:       25.299 MB (on task 43)
          |   Average:       23.583 MB
          | Largest tracked array allocation (hamiltonian_shell):
          |   Minimum:        6.055 MB (on task  1)
          |   Maximum:        6.055 MB (on task  1)
          |   Average:        6.055 MB
          Note:  These values currently only include a subset of arrays which are explicitly tracked.
          The "true" memory usage will be greater.

          Have a nice day.
------------------------------------------------------------
