  MPI-parallelism will be employed.
------------------------------------------------------------
          Invoking FHI-aims ...
          Version 180607
          Git rev. (modified): 6724847 Fix JSON memory corruption in scf_solver
          Compiled on 2018/06/27 at 16:00:31 on host coe.psc.edu.

          When using FHI-aims, please cite the following reference:

          Volker Blum, Ralf Gehrke, Felix Hanke, Paula Havu,
          Ville Havu, Xinguo Ren, Karsten Reuter, and Matthias Scheffler,
          'Ab Initio Molecular Simulations with Numeric Atom-Centered Orbitals',
          Computer Physics Communications 180, 2175-2196 (2009)

          For any questions about FHI-aims, please visit the aimsclub website
          with its forums and wiki. Contributions to both the forums and the
          wiki are warmly encouraged - they are for you, and everyone is welcome there.

------------------------------------------------------------



  Date     :  20210620, Time     :  161207.225
  Time zero on CPU 1             :   0.270864000000000E+00  s.
  Internal wall clock time zero  :           393437527.225  s.

  FHI-aims created a unique identifier for this run for later identification
  aims_uuid : 622BE32A-1066-4052-AA22-391F9E142389

  Using       56 parallel tasks.
  Task        0 on host d030 reporting.
  Task        1 on host d030 reporting.
  Task        2 on host d030 reporting.
  Task        3 on host d030 reporting.
  Task        4 on host d030 reporting.
  Task        5 on host d030 reporting.
  Task        6 on host d030 reporting.
  Task        7 on host d030 reporting.
  Task        8 on host d030 reporting.
  Task        9 on host d030 reporting.
  Task       10 on host d030 reporting.
  Task       11 on host d030 reporting.
  Task       12 on host d030 reporting.
  Task       13 on host d030 reporting.
  Task       14 on host d030 reporting.
  Task       15 on host d030 reporting.
  Task       16 on host d030 reporting.
  Task       17 on host d030 reporting.
  Task       18 on host d030 reporting.
  Task       19 on host d030 reporting.
  Task       20 on host d030 reporting.
  Task       21 on host d030 reporting.
  Task       22 on host d030 reporting.
  Task       23 on host d030 reporting.
  Task       24 on host d030 reporting.
  Task       25 on host d030 reporting.
  Task       26 on host d030 reporting.
  Task       27 on host d030 reporting.
  Task       28 on host d030 reporting.
  Task       29 on host d030 reporting.
  Task       30 on host d030 reporting.
  Task       31 on host d030 reporting.
  Task       32 on host d030 reporting.
  Task       33 on host d030 reporting.
  Task       34 on host d030 reporting.
  Task       35 on host d030 reporting.
  Task       36 on host d030 reporting.
  Task       37 on host d030 reporting.
  Task       38 on host d030 reporting.
  Task       39 on host d030 reporting.
  Task       40 on host d030 reporting.
  Task       41 on host d030 reporting.
  Task       42 on host d030 reporting.
  Task       43 on host d030 reporting.
  Task       44 on host d030 reporting.
  Task       45 on host d030 reporting.
  Task       46 on host d030 reporting.
  Task       47 on host d030 reporting.
  Task       48 on host d030 reporting.
  Task       49 on host d030 reporting.
  Task       50 on host d030 reporting.
  Task       51 on host d030 reporting.
  Task       52 on host d030 reporting.
  Task       53 on host d030 reporting.
  Task       54 on host d030 reporting.
  Task       55 on host d030 reporting.

  Performing system and environment tests:
  *** Environment variable OMP_NUM_THREADS is not set
  *** For performance reasons you might want to set it to 1
  | Stacksize not measured: no C compiler
  | Checking for scalapack...
  | Testing pdtran()...
  | All pdtran() tests passed.

  Obtaining array dimensions for all initial allocations:
  
  -----------------------------------------------------------------------
  Parsing control.in (first pass over file, find array dimensions only).
  The contents of control.in will be repeated verbatim below
  unless switched off by setting 'verbatim_writeout .false.' .
  in the first line of control.in .
  -----------------------------------------------------------------------
  
  #===============================================================================
  # FHI-aims file: ./Runs/es/control.in
  # Created using the Atomic Simulation Environment (ASE)
  # Mon Jan 13 16:04:38 2020
  #===============================================================================
  xc                                 pbe
  relativistic                       zora scalar 1e-12
  occupation_type                    gaussian 0.0001
  load_balancing                     .true.
  KS_method                          scalapack_fast
  mixer                              pulay
  n_max_pulay                        5
  charge_mix_param                   0.4
  sc_accuracy_etot                   1e-6
  sc_accuracy_eev                    1e-4
  sc_accuracy_rho                    1e-6
  sc_iter_limit                      100
  prodbas_threshold                  1e-4
  basis_threshold                    1e-5
  override_illconditioning           .true.
  use_logsbt                         .true.
  spin                               none
  charge                             0
  #===============================================================================
  
  ################################################################################
  #
  #  FHI-aims code project
  # Volker Blum, Fritz Haber Institute Berlin, 2009
  #
  #  Suggested "tight" defaults for H atom (to be pasted into control.in file)
  #
  ################################################################################
    species        H
  #     global species definitions
      nucleus             1
      mass                1.00794
  #
      l_hartree           6
  #
      cut_pot             4.0  2.0  1.0
      basis_dep_cutoff    1e-4
  #
      radial_base         24 7.0
      radial_multiplier   2
      angular_grids       specified
        division   0.1930   50
        division   0.3175  110
        division   0.4293  194
        division   0.5066  302
        division   0.5626  434
  #      division   0.5922  590
  #      division   0.6227  974
  #      division   0.6868 1202
  #      outer_grid  770
        outer_grid  434
  ################################################################################
  #
  #  Definition of "minimal" basis
  #
  ################################################################################
  #     valence basis states
      valence      1  s   1.
  #     ion occupancy
      ion_occ      1  s   0.5
  ################################################################################
  #
  #  Suggested additional basis functions. For production calculations,
  #  uncomment them one after another (the most important basis functions are
  #  listed first).
  #
  #  Basis constructed for dimers: 0.5 A, 0.7 A, 1.0 A, 1.5 A, 2.5 A
  #
  ################################################################################
  #  "First tier" - improvements: -1014.90 meV to -62.69 meV
       hydro 2 s 2.1
       hydro 2 p 3.5
  #  "Second tier" - improvements: -12.89 meV to -1.83 meV
       hydro 1 s 0.85
       hydro 2 p 3.7
       hydro 2 s 1.2
       hydro 3 d 7
  #  "Third tier" - improvements: -0.25 meV to -0.12 meV
  #     hydro 4 f 11.2
  #     hydro 3 p 4.8
  #     hydro 4 d 9
  #     hydro 3 s 3.2
  ################################################################################
  #
  # For methods that use the localized form of the "resolution of identity" for
  # the two-electron Coulomb operator (RI_method LVL), particularly Hartree-Fock and
  # hybrid density functional calculations, the highest accuracy can be obtained by
  # uncommenting the line beginning with "for_aux"  below, thus adding an extra g radial
  # function to the construction of the product basis set for the expansion.
  # See Ref. New J. Phys. 17, 093020 (2015) for more information, particularly Figs. 1 and 6.
  #
  ################################################################################
  #
  # for_aux hydro 5 g 6.0
  ################################################################################
  #
  #  FHI-aims code project
  # Volker Blum, Fritz Haber Institute Berlin, 2009
  #
  #  Suggested "tight" defaults for C atom (to be pasted into control.in file)
  #
  ################################################################################
    species        C
  #     global species definitions
      nucleus             6
      mass                12.0107
  #
      l_hartree           6
  #
      cut_pot             4.0  2.0  1.0
      basis_dep_cutoff    1e-4
  #
      radial_base         34 7.0
      radial_multiplier   2
      angular_grids specified
        division   0.2187   50
        division   0.4416  110
        division   0.6335  194
        division   0.7727  302
        division   0.8772  434
  #      division   0.9334  590
  #      division   0.9924  770
  #      division   1.0230  974
  #      division   1.5020 1202
  #     outer_grid  974
        outer_grid  434
  ################################################################################
  #
  #  Definition of "minimal" basis
  #
  ################################################################################
  #     valence basis states
      valence      2  s   2.
      valence      2  p   2.
  #     ion occupancy
      ion_occ      2  s   1.
      ion_occ      2  p   1.
  ################################################################################
  #
  #  Suggested additional basis functions. For production calculations,
  #  uncomment them one after another (the most important basis functions are
  #  listed first).
  #
  #  Constructed for dimers: 1.0 A, 1.25 A, 1.5 A, 2.0 A, 3.0 A
  #
  ################################################################################
  #  "First tier" - improvements: -1214.57 meV to -155.61 meV
       hydro 2 p 1.7
       hydro 3 d 6
       hydro 2 s 4.9
  #  "Second tier" - improvements: -67.75 meV to -5.23 meV
       hydro 4 f 9.8
       hydro 3 p 5.2
       hydro 3 s 4.3
       hydro 5 g 14.4
       hydro 3 d 6.2
  #  "Third tier" - improvements: -2.43 meV to -0.60 meV
  #     hydro 2 p 5.6
  #     hydro 2 s 1.4
  #     hydro 3 d 4.9
  #     hydro 4 f 11.2
  #  "Fourth tier" - improvements: -0.39 meV to -0.18 meV
  #     hydro 2 p 2.1
  #     hydro 5 g 16.4
  #     hydro 4 d 13.2
  #     hydro 3 s 13.6
  #     hydro 4 f 17.6
  #  Further basis functions - improvements: -0.08 meV and below
  #     hydro 3 s 2
  #     hydro 3 p 6
  #     hydro 4 d 20
  ################################################################################
  #
  # For methods that use the localized form of the "resolution of identity" for
  # the two-electron Coulomb operator (RI_method LVL), particularly Hartree-Fock and
  # hybrid density functional calculations, the highest accuracy can be obtained by
  # uncommenting the line beginning with "for_aux"  below, thus adding an extra g radial
  # function to the construction of the product basis set for the expansion.
  # See Ref. New J. Phys. 17, 093020 (2015) for more information, particularly Figs. 1 and 6.
  #
  ################################################################################
  #
  # for_aux hydro 5 g 6.0
  
  -----------------------------------------------------------------------
  Completed first pass over input file control.in .
  -----------------------------------------------------------------------
  
  
  -----------------------------------------------------------------------
  Parsing geometry.in (first pass over file, find array dimensions only).
  The contents of geometry.in will be repeated verbatim below
  unless switched off by setting 'verbatim_writeout .false.' .
  in the first line of geometry.in .
  -----------------------------------------------------------------------
  
  #=======================================================
  # FHI-aims file: geometry.in
  # Created using the Atomic Simulation Environment (ASE)
  # Sun Jun 20 15:47:01 2021
  #=======================================================
  atom 6.8339860000000003 34.5149159999999995 50.3310839999999970 H
  atom 7.1815720000000001 35.5463049999999967 50.3125199999999992 C
  atom 6.7192639999999999 36.4527709999999985 51.3019200000000026 C
  atom 8.0497169999999993 35.9292439999999971 49.3333200000000005 C
  atom 5.8193400000000004 36.0885779999999983 52.3586400000000012 C
  atom 7.1874490000000000 37.7810040000000029 51.2305199999999985 C
  atom 8.3827540000000003 35.1995190000000022 48.5936159999999973 H
  atom 8.5225960000000001 37.2414100000000019 49.2598800000000026 C
  atom 5.3333040000000000 34.7616840000000025 52.5238799999999983 C
  atom 5.3952720000000003 37.0566350000000000 53.2684799999999967 C
  atom 6.7431780000000003 38.7437060000000031 52.1730000000000018 C
  atom 8.0839540000000003 38.1545699999999997 50.1880799999999994 C
  atom 9.2285249999999994 37.5323619999999991 48.4832520000000002 H
  atom 4.4685210000000000 34.4363200000000020 53.5112400000000008 C
  atom 5.6596039999999999 33.9841589999999982 51.8363999999999976 H
  atom 4.4869589999999997 36.7460000000000022 54.3129599999999968 C
  atom 5.8757130000000002 38.4143249999999981 53.1685200000000009 C
  atom 7.1166020000000003 39.7655880000000010 52.0946640000000016 H
  atom 8.4294220000000006 39.1876999999999995 50.1552360000000022 H
  atom 4.1045170000000004 33.4126970000000014 53.6109960000000001 H
  atom 3.9963479999999998 35.4231229999999968 54.4496400000000023 C
  atom 4.0498250000000002 37.7207519999999974 55.2391199999999998 C
  atom 5.4139260000000000 39.3904160000000019 54.1313999999999993 C
  atom 3.0868389999999999 35.1111480000000000 55.4839199999999977 C
  atom 3.1467380000000000 37.3860159999999979 56.2570800000000020 C
  atom 4.5552820000000001 39.0556800000000024 55.1065200000000033 C
  atom 5.7947189999999997 40.4069429999999983 54.0359279999999984 H
  atom 2.6994820000000002 34.0963619999999992 55.5640920000000023 H
  atom 2.6706099999999999 36.0966120000000004 56.3488800000000012 C
  atom 2.8104909999999999 38.1544359999999969 56.9519039999999990 H
  atom 4.2129149999999997 39.8085680000000011 55.8184800000000010 H
  atom 1.9454050000000001 35.8547980000000024 57.1265280000000004 H
  
  -----------------------------------------------------------------------
  Completed first pass over input file geometry.in .
  -----------------------------------------------------------------------
  

  Basic array size parameters:
  | Number of species                 :        2
  | Number of atoms                   :       32
  | Max. basis fn. angular momentum   :        4
  | Max. atomic/ionic basis occupied n:        2
  | Max. number of basis fn. types    :        2
  | Max. radial fns per species/type  :        8
  | Max. logarithmic grid size        :     1277
  | Max. radial integration grid size :       69
  | Max. angular integration grid size:      434
  | Max. angular grid division number :        8
  | Radial grid for Hartree potential :     1277
  | Number of spin channels           :        1

------------------------------------------------------------
          Reading file control.in.
------------------------------------------------------------
  XC: Using PBE gradient-corrected functionals.
  Scalar relativistic treatment of kinetic energy: ZORA.
  Threshold value for ZORA:   0.100000E-11
  Occupation type: Gaussian broadening, width =   0.100000E-03 eV.
  Since 'load_balancing .true.' is present in control.in, automatically turning on 'use_local_index .true.'.
  Using load balancing for integrations.
  Kohn-Sham electronic structure solved by the ELSI library.
  Using pulay charge density mixing.
  Pulay mixing - number of memorized iterations:    5
  Charge density mixing - mixing parameter:     0.4000
  Convergence accuracy of total energy:  0.1000E-05
  Convergence accuracy of sum of eigenvalues:  0.1000E-03
  Convergence accuracy of self-consistent charge density:  0.1000E-05
  Maximum number of s.-c. iterations  :   100
  * Ignoring prodbas_threshold
  Threshold for basis singularities:  0.1000E-04
  override_illconditioning: Explicitly overriding any built-in checks for an ill-conditioned overlap matrix.
  *** WARNING: If you use this flag, you should really know what you are doing.
  *** DO NOT keep this flag set by default in all your control.in files.
  Using 1D integrations for auxiliary 2-center integrals.
  Spin treatment: No spin polarisation.
  Charge =   0.000000E+00: Neutral system requested explicitly.
 
  Reading configuration options for species H                   .
  | Found nuclear charge :   1.0000
  | Found atomic mass :    1.00794000000000      amu
  | Found l_max for Hartree potential  :   6
  | Found cutoff potl. onset [A], width [A], scale factor :    4.00000    2.00000    1.00000
  | Threshold for basis-dependent cutoff potential is   0.100000E-03
  | Found data for basic radial integration grid :    24 points, outermost radius =    7.000 A
  | Found multiplier for basic radial grid :   2
  | Found angular grid specification: user-specified.
  | Specified grid contains     6 separate shells.
  | Check grid settings after all constraints further below.
  | Found free-atom valence shell :  1 s   1.000
  | No ionic wave fns used. Skipping ion_occ.
  | Found hydrogenic basis function :  2 s   2.100
  | Found hydrogenic basis function :  2 p   3.500
  | Found hydrogenic basis function :  1 s   0.850
  | Found hydrogenic basis function :  2 p   3.700
  | Found hydrogenic basis function :  2 s   1.200
  | Found hydrogenic basis function :  3 d   7.000
  Species H                   : Missing cutoff potential type.
  Defaulting to exp(1/x)/(1-x)^2 type cutoff potential.
  Species H : No 'logarithmic' tag. Using default grid for free atom:
  | Default logarithmic grid data [bohr] : 0.1000E-03 0.1000E+03 0.1012E+01
  Species H : On-site basis accuracy parameter (for Gram-Schmidt orthonormalisation) not specified.
  Using default value basis_acc =  0.1000000E-03.
  Species H                   : Using default innermost maximum threshold i_radial=  2 for radial functions.
  Species H                   : Default cutoff onset for free atom density etc. : 0.40000000E+01 AA.
  Species H                   : Basic radial grid will be enhanced according to radial_multiplier =   2, to contain    49 grid points.
 
  Reading configuration options for species C                   .
  | Found nuclear charge :   6.0000
  | Found atomic mass :    12.0107000000000      amu
  | Found l_max for Hartree potential  :   6
  | Found cutoff potl. onset [A], width [A], scale factor :    4.00000    2.00000    1.00000
  | Threshold for basis-dependent cutoff potential is   0.100000E-03
  | Found data for basic radial integration grid :    34 points, outermost radius =    7.000 A
  | Found multiplier for basic radial grid :   2
  | Found angular grid specification: user-specified.
  | Specified grid contains     6 separate shells.
  | Check grid settings after all constraints further below.
  | Found free-atom valence shell :  2 s   2.000
  | Found free-atom valence shell :  2 p   2.000
  | No ionic wave fns used. Skipping ion_occ.
  | No ionic wave fns used. Skipping ion_occ.
  | Found hydrogenic basis function :  2 p   1.700
  | Found hydrogenic basis function :  3 d   6.000
  | Found hydrogenic basis function :  2 s   4.900
  | Found hydrogenic basis function :  4 f   9.800
  | Found hydrogenic basis function :  3 p   5.200
  | Found hydrogenic basis function :  3 s   4.300
  | Found hydrogenic basis function :  5 g  14.400
  | Found hydrogenic basis function :  3 d   6.200
  Species C                   : Missing cutoff potential type.
  Defaulting to exp(1/x)/(1-x)^2 type cutoff potential.
  Species C : No 'logarithmic' tag. Using default grid for free atom:
  | Default logarithmic grid data [bohr] : 0.1000E-03 0.1000E+03 0.1012E+01
  Species C : On-site basis accuracy parameter (for Gram-Schmidt orthonormalisation) not specified.
  Using default value basis_acc =  0.1000000E-03.
  Species C                   : Using default innermost maximum threshold i_radial=  2 for radial functions.
  Species C                   : Default cutoff onset for free atom density etc. : 0.40000000E+01 AA.
  Species C                   : Basic radial grid will be enhanced according to radial_multiplier =   2, to contain    69 grid points.
 
  Finished reading input file 'control.in'. Consistency checks are next.
 
  MPI_IN_PLACE appears to work with this MPI implementation.
  | Keeping use_mpi_in_place .true. (see manual).
  Target number of points in a grid batch is not set. Defaulting to  100
  Method for grid partitioning is not set. Defaulting to parallel hash+maxmin partitioning.
  Batch size limit is not set. Defaulting to    200
  By default, will store active basis functions for each batch.
  If in need of memory, prune_basis_once .false. can be used to disable this option.
  communication_type for Hartree potential was not specified.
  Defaulting to calc_hartree .
  Pulay mixer: Number of initial linear mixing iterations not set.
  Defaulting to    0 iterations.
  Work space size for distributed Hartree potential not set.
  Defaulting to   0.200000E+03 MB.
  Algorithm-dependent basis array size parameters:
  | n_max_pulay                         :        5
  Presetting      1001 iterations before the initial mixing cycle
  is restarted anyway using the sc_init_iter criterion / keyword.
  Presetting a factor      1.000 between actual scf density residual
  and density convergence criterion sc_accuracy_rho below which sc_init_iter
  takes no effect.
  Calculation of forces was not defined in control.in. No forces will be calculated.
  Geometry relaxation not requested: no relaxation will be performed.
  No accuracy limit for integral partition fn. given. Defaulting to  0.1000E-14.
  No threshold value for u(r) in integrations given. Defaulting to  0.1000E-05.
  No accuracy for occupation numbers given. Defaulting to  0.1000E-12.
  No threshold value for occupation numbers given. Defaulting to  0.0000E+00.
  No accuracy for fermi level given. Defaulting to  0.1000E-19.
  Maximum # of iterations to find E_F not set. Defaulting to  200.
  Will not use alltoall communication since running on < 1024 CPUs.
  partition_type (choice of integration weights) for integrals was not specified.
  | Using a version of the partition function of Stratmann and coworkers ('stratmann_sparse').
  | At each grid point, the set of atoms used to build the partition table is smoothly restricted to
  | only those atoms whose free-atom density would be non-zero at that grid point.
  Partitioning for Hartree potential was not defined. Using partition_type for integrals.
  | Adjusted default value of keyword multip_moments_threshold to:       0.10000000E-11
  | This value may affect high angular momentum components of the Hartree potential in periodic systems.
  No q(lm)/r^(l+1) cutoff set for long-range Hartree potential.
  | Using default value of  0.100000E-09 .
  | Verify using the multipole_threshold keyword.
  Defaulting to new monopole extrapolation.
  Density update method: automatic selection selected.
 * Warning: use_local_index and/or load_balancing needs packed_matrix_format = index
 * Changing the default setting to packed_matrix_format = index
------------------------------------------------------------


------------------------------------------------------------
          Reading geometry description geometry.in.
------------------------------------------------------------
  Input structure read successfully.
  The structure contains       32 atoms,  and a total of        132.000 electrons.

  Input geometry:
  | No unit cell requested.
  | Atomic structure:
  |       Atom                x [A]            y [A]            z [A]
  |    1: Species H             6.83398600       34.51491600       50.33108400
  |    2: Species C             7.18157200       35.54630500       50.31252000
  |    3: Species C             6.71926400       36.45277100       51.30192000
  |    4: Species C             8.04971700       35.92924400       49.33332000
  |    5: Species C             5.81934000       36.08857800       52.35864000
  |    6: Species C             7.18744900       37.78100400       51.23052000
  |    7: Species H             8.38275400       35.19951900       48.59361600
  |    8: Species C             8.52259600       37.24141000       49.25988000
  |    9: Species C             5.33330400       34.76168400       52.52388000
  |   10: Species C             5.39527200       37.05663500       53.26848000
  |   11: Species C             6.74317800       38.74370600       52.17300000
  |   12: Species C             8.08395400       38.15457000       50.18808000
  |   13: Species H             9.22852500       37.53236200       48.48325200
  |   14: Species C             4.46852100       34.43632000       53.51124000
  |   15: Species H             5.65960400       33.98415900       51.83640000
  |   16: Species C             4.48695900       36.74600000       54.31296000
  |   17: Species C             5.87571300       38.41432500       53.16852000
  |   18: Species H             7.11660200       39.76558800       52.09466400
  |   19: Species H             8.42942200       39.18770000       50.15523600
  |   20: Species H             4.10451700       33.41269700       53.61099600
  |   21: Species C             3.99634800       35.42312300       54.44964000
  |   22: Species C             4.04982500       37.72075200       55.23912000
  |   23: Species C             5.41392600       39.39041600       54.13140000
  |   24: Species C             3.08683900       35.11114800       55.48392000
  |   25: Species C             3.14673800       37.38601600       56.25708000
  |   26: Species C             4.55528200       39.05568000       55.10652000
  |   27: Species H             5.79471900       40.40694300       54.03592800
  |   28: Species H             2.69948200       34.09636200       55.56409200
  |   29: Species C             2.67061000       36.09661200       56.34888000
  |   30: Species H             2.81049100       38.15443600       56.95190400
  |   31: Species H             4.21291500       39.80856800       55.81848000
  |   32: Species H             1.94540500       35.85479800       57.12652800
  |

  | The smallest distance between any two atoms is         1.08795476 AA.
  |
  | The first atom of this pair is atom number                      9 .
  | The second atom of this pair is atom number                    15 .

  Number of empty states per atom not set in control.in - providing a guess from actual geometry.
  | Total number of empty states used during s.c.f. cycle:       78
  If you use a very high smearing, use empty_states (per atom!) in control.in to increase this value.

  Structure-dependent array size parameters: 
  | Maximum number of distinct radial functions  :       18
  | Maximum number of basis functions            :      960
  | Number of Kohn-Sham states (occupied + empty):      144
------------------------------------------------------------

------------------------------------------------------------
          Preparing all fixed parts of the calculation.
------------------------------------------------------------
  Determining machine precision:
    2.225073858507201E-308
  Setting up grids for atomic and cluster calculations.

  Creating wave function, potential, and density for free atoms.

  Species: H

  List of occupied orbitals and eigenvalues:
    n    l              occ      energy [Ha]    energy [eV]
    1    0           1.0000        -0.238386        -6.4868


  Species: C

  List of occupied orbitals and eigenvalues:
    n    l              occ      energy [Ha]    energy [eV]
    1    0           2.0000       -10.049212      -273.4530
    2    0           2.0000        -0.504761       -13.7352
    2    1           2.0000        -0.193631        -5.2690

  Creating fixed part of basis set: Ionic, confined, hydrogenic.
 
  H                    hydrogenic:
 
  List of hydrogenic basis orbitals: 
    n    l      effective z      eigenvalue [eV]  inner max. [A]     outer max. [A]     outer radius [A]   
    2    0         2.100000       -14.9965           0.193243           1.317208           5.373006
    2    1         3.500000       -41.6672           0.602369           0.602369           4.056063
    1    0         0.850000        -9.8292           0.624871           0.624871           5.373006
    2    1         3.700000       -46.5653           0.573622           0.573622           3.910002
    2    0         1.200000        -4.5995           0.334980           2.228188           5.505995
    3    2         7.000000       -74.0753           0.680699           0.680699           3.769201
 
 
  C                    hydrogenic:
 
  List of hydrogenic basis orbitals: 
    n    l      effective z      eigenvalue [eV]  inner max. [A]     outer max. [A]     outer radius [A]   
    2    1         1.700000        -9.8152           1.245706           1.245706           5.401630
    3    2         6.000000       -54.4226           0.792453           0.792453           4.178599
    2    0         4.900000       -81.6681           0.082559           0.562749           3.353238
    4    3         9.800000       -81.6681           0.863254           0.863254           4.028125
    3    1         5.200000       -40.8774           0.305389           1.215618           4.898362
    3    0         4.300000       -27.9508           0.091041           1.610311           5.401630
    5    4        14.400000      -112.8510           0.917666           0.917666           3.883070
    3    2         6.200000       -58.1113           0.763917           0.763917           4.077671
 

  Adding cutoff potential to free-atom effective potential.
  Creating atomic-like basis functions for current effective potential.

  Species H                   :

  List of atomic basis orbitals and eigenvalues:
    n    l      energy [Ha]    energy [eV]    outer radius [A]
    1    0        -0.238386        -6.4868       5.373006


  Species C                   :

  List of atomic basis orbitals and eigenvalues:
    n    l      energy [Ha]    energy [eV]    outer radius [A]
    1    0       -10.049212      -273.4530       1.934409
    2    0        -0.504761       -13.7352       5.271162
    2    1        -0.193631        -5.2690       5.401630

  Assembling full basis from fixed parts.
  | Species H :   atomic orbital   1 s accepted.
  | Species H :    hydro orbital   2 s accepted.
  | Species H :    hydro orbital   1 s accepted.
  | Species H :    hydro orbital   2 s accepted.
  | Species H :    hydro orbital   2 p accepted.
  | Species H :    hydro orbital   2 p accepted.
  | Species H :    hydro orbital   3 d accepted.
  | Species C :   atomic orbital   1 s accepted.
  | Species C :    hydro orbital   2 s accepted.
  | Species C :   atomic orbital   2 s accepted.
  | Species C :    hydro orbital   3 s accepted.
  | Species C :    hydro orbital   3 p accepted.
  | Species C :   atomic orbital   2 p accepted.
  | Species C :    hydro orbital   2 p accepted.
  | Species C :    hydro orbital   3 d accepted.
  | Species C :    hydro orbital   3 d accepted.
  | Species C :    hydro orbital   4 f accepted.
  | Species C :    hydro orbital   5 g accepted.
 
  Basis size parameters after reduction:
  | Total number of radial functions:       18
  | Total number of basis functions :      960
 
  Per-task memory consumption for arrays in subroutine allocate_ext:
  |           4.436216MB.
  Testing on-site integration grid accuracy.
  |  Species  Function  <phi|h_atom|phi> (log., in eV)  <phi|h_atom|phi> (rad., in eV)
           1        1                 -6.4870767962                 -6.4871688290
           1        2                 13.5032046589                 13.5028982997
           1        3                 32.8195184817                 32.8119941656
           1        4                 33.8513856511                 33.7670005767 ***
           1        5                 28.8544614965                 28.8544615203
           1        6                 59.6326952547                 59.6327656460
           1        7                 60.2719308513                 60.2719305949
           2        8               -273.4529726040               -273.4529710464
           2        9                -10.7721037319                -10.7721022101
           2       10                 17.6044132601                 17.6044162063
           2       11                 53.7706460658                 53.7706913770
           2       12                 15.0973290362                 15.0973256030
           2       13                  3.8545134692                  3.8545724687
           2       14                 12.1156992592                 12.1182024431
           2       15                 29.4352039302                 29.4352041816
           2       16                 54.8741144708                 54.8740268729
           2       17                 59.3556032049                 59.3556031382
           2       18                 93.4551837154                 93.4551838009
 * Note: Onsite integrals marked "***" above are less accurate than
 * onsite_accuracy_threshold =    0.03000 eV. Usually, this is harmless.
 * When in doubt, tighten the "radial" and/or "radial_multiplier" flags to check.

  Preparing densities etc. for the partition functions (integrals / Hartree potential).

  Preparations completed.
  max(cpu_time)          :      0.193 s.
  Wall clock time (cpu1) :      0.207 s.
------------------------------------------------------------

------------------------------------------------------------
          Begin self-consistency loop: Initialization.

          Date     :  20210620, Time     :  161207.629
------------------------------------------------------------

  Initializing index lists of integration centers etc. from given atomic structure:
  | Number of centers in hartree potential         :        32
  | Number of centers in hartree multipole         :        32
  | Number of centers in electron density summation:        32
  | Number of centers in basis integrals           :        32
  | Number of centers in integrals                 :        32
  | Number of centers in hamiltonian               :        32
  * Using 56 tasks for Scalapack Eigenvalue solver.
  Detailed listing of tasks and assigned k-points:
  (for non-periodic systems, the "k-point" denotes an internal label only)
   Task     0 k-point     1 on d030
   Task     1 k-point     1 on d030
   Task     2 k-point     1 on d030
   Task     3 k-point     1 on d030
   Task     4 k-point     1 on d030
   Task     5 k-point     1 on d030
   Task     6 k-point     1 on d030
   Task     7 k-point     1 on d030
   Task     8 k-point     1 on d030
   Task     9 k-point     1 on d030
   Task    10 k-point     1 on d030
   Task    11 k-point     1 on d030
   Task    12 k-point     1 on d030
   Task    13 k-point     1 on d030
   Task    14 k-point     1 on d030
   Task    15 k-point     1 on d030
   Task    16 k-point     1 on d030
   Task    17 k-point     1 on d030
   Task    18 k-point     1 on d030
   Task    19 k-point     1 on d030
   Task    20 k-point     1 on d030
   Task    21 k-point     1 on d030
   Task    22 k-point     1 on d030
   Task    23 k-point     1 on d030
   Task    24 k-point     1 on d030
   Task    25 k-point     1 on d030
   Task    26 k-point     1 on d030
   Task    27 k-point     1 on d030
   Task    28 k-point     1 on d030
   Task    29 k-point     1 on d030
   Task    30 k-point     1 on d030
   Task    31 k-point     1 on d030
   Task    32 k-point     1 on d030
   Task    33 k-point     1 on d030
   Task    34 k-point     1 on d030
   Task    35 k-point     1 on d030
   Task    36 k-point     1 on d030
   Task    37 k-point     1 on d030
   Task    38 k-point     1 on d030
   Task    39 k-point     1 on d030
   Task    40 k-point     1 on d030
   Task    41 k-point     1 on d030
   Task    42 k-point     1 on d030
   Task    43 k-point     1 on d030
   Task    44 k-point     1 on d030
   Task    45 k-point     1 on d030
   Task    46 k-point     1 on d030
   Task    47 k-point     1 on d030
   Task    48 k-point     1 on d030
   Task    49 k-point     1 on d030
   Task    50 k-point     1 on d030
   Task    51 k-point     1 on d030
   Task    52 k-point     1 on d030
   Task    53 k-point     1 on d030
   Task    54 k-point     1 on d030
   Task    55 k-point     1 on d030
  Tasks:    56 split into      8 X      7 BLACS grid
  Calculating block size based on n_basis =          960 max_nprow =            8 max_npcol =            7
  ScaLAPACK block size set to:           16
  Allocating        0.147 MB for ovlp
  Allocating        0.147 MB for ham
  Allocating        0.147 MB for eigenvec
  Required Scalapack workspace - INTEGER:            1 REAL:             1
  Partitioning the integration grid into batches with parallel hashing+maxmin method.
  | Number of batches:     5142
  | Maximal batch size:     200
  | Minimal batch size:       1
  | Average batch size:     104.037
  | Standard deviation of batch sizes:      27.915

  Integration load balanced across     56 MPI tasks.
  Work distribution over tasks is as follows:
  Task      0 has       9698 integration points.
  Task      1 has       9586 integration points.
  Task      2 has       9467 integration points.
  Task      3 has       9627 integration points.
  Task      4 has       9475 integration points.
  Task      5 has       9599 integration points.
  Task      6 has       9465 integration points.
  Task      7 has       9664 integration points.
  Task      8 has       9536 integration points.
  Task      9 has       9481 integration points.
  Task     10 has       9590 integration points.
  Task     11 has       9553 integration points.
  Task     12 has       9562 integration points.
  Task     13 has       9480 integration points.
  Task     14 has       9681 integration points.
  Task     15 has       9532 integration points.
  Task     16 has       9527 integration points.
  Task     17 has       9675 integration points.
  Task     18 has       9572 integration points.
  Task     19 has       9497 integration points.
  Task     20 has       9425 integration points.
  Task     21 has       9652 integration points.
  Task     22 has       9590 integration points.
  Task     23 has       9484 integration points.
  Task     24 has       9637 integration points.
  Task     25 has       9481 integration points.
  Task     26 has       9620 integration points.
  Task     27 has       9393 integration points.
  Task     28 has       9622 integration points.
  Task     29 has       9617 integration points.
  Task     30 has       9453 integration points.
  Task     31 has       9595 integration points.
  Task     32 has       9580 integration points.
  Task     33 has       9522 integration points.
  Task     34 has       9482 integration points.
  Task     35 has       9619 integration points.
  Task     36 has       9569 integration points.
  Task     37 has       9504 integration points.
  Task     38 has       9657 integration points.
  Task     39 has       9443 integration points.
  Task     40 has       9565 integration points.
  Task     41 has       9482 integration points.
  Task     42 has       9640 integration points.
  Task     43 has       9573 integration points.
  Task     44 has       9549 integration points.
  Task     45 has       9566 integration points.
  Task     46 has       9536 integration points.
  Task     47 has       9597 integration points.
  Task     48 has       9462 integration points.
  Task     49 has       9622 integration points.
  Task     50 has       9538 integration points.
  Task     51 has       9525 integration points.
  Task     52 has       9651 integration points.
  Task     53 has       9559 integration points.
  Task     54 has       9488 integration points.
  Task     55 has       9395 integration points.
  Initializing partition tables, free-atom densities, potentials, etc. across the integration grid (initialize_grid_storage).
  | initialize_grid_storage: Actual outermost partition radius vs. multipole_radius_free
  | (-- VB: in principle, multipole_radius_free should be larger, hence this output)
  | Species        1: Confinement radius =              6.000000000000000 AA, multipole_radius_free =              6.071692442739658 AA.
  | Species        1: outer_partition_radius set to              6.071692442739658 AA .
  | Species        2: Confinement radius =              6.000000000000000 AA, multipole_radius_free =              6.029870734432609 AA.
  | Species        2: outer_partition_radius set to              6.029870734432609 AA .
  | The sparse table of interatomic distances needs     12.0360 kbyte instead of     8.1920 kbyte of memory.
  | Using the partition_type stratmann_smoother will reduce your memory usage.
  | Net number of integration points:   534960
  | of which are non-zero points    :   433327
  Renormalizing the initial density to the exact electron count on the 3D integration grid.
  | Initial density: Formal number of electrons (from input files) :     132.0000000000
  | Integrated number of electrons on 3D grid     :     132.0000852089
  | Charge integration error                      :       0.0000852089
  | Normalization factor for density and gradient :       0.9999993545
  Obtaining max. number of non-zero basis functions in each batch (get_n_compute_maxes).
  | Maximal number of non-zero basis functions:      835
  Selecting the method for density update.
  Loop over occupied states selected for charge density update.
  Hamiltonian matrix size:
  | Size of matrix non-packed:                461280
  | Size of matrix packed:          444916
  Allocating        1.106 MB for KS_eigenvector
  use_local_index: Max. local matrix size =       428215
  Task:     0 matrix size:     203537
  Task:     1 matrix size:     265601
  Task:     2 matrix size:     359385
  Task:     3 matrix size:     252890
  Task:     4 matrix size:     406387
  Task:     5 matrix size:     284204
  Task:     6 matrix size:     399698
  Task:     7 matrix size:     149878
  Task:     8 matrix size:      90951
  Task:     9 matrix size:      99235
  Task:    10 matrix size:     224134
  Task:    11 matrix size:     288669
  Task:    12 matrix size:     315705
  Task:    13 matrix size:     293562
  Task:    14 matrix size:     359649
  Task:    15 matrix size:     312585
  Task:    16 matrix size:     234378
  Task:    17 matrix size:     428215
  Task:    18 matrix size:     379038
  Task:    19 matrix size:     372625
  Task:    20 matrix size:     227637
  Task:    21 matrix size:     145530
  Task:    22 matrix size:     118828
  Task:    23 matrix size:     110215
  Task:    24 matrix size:     307067
  Task:    25 matrix size:     222635
  Task:    26 matrix size:     241499
  Task:    27 matrix size:     186122
  Task:    28 matrix size:     144936
  Task:    29 matrix size:     233564
  Task:    30 matrix size:     279933
  Task:    31 matrix size:     107416
  Task:    32 matrix size:     141778
  Task:    33 matrix size:     182106
  Task:    34 matrix size:     117855
  Task:    35 matrix size:     251911
  Task:    36 matrix size:     341819
  Task:    37 matrix size:     417723
  Task:    38 matrix size:     234835
  Task:    39 matrix size:     326382
  Task:    40 matrix size:     292687
  Task:    41 matrix size:     373464
  Task:    42 matrix size:     256536
  Task:    43 matrix size:     324975
  Task:    44 matrix size:     268048
  Task:    45 matrix size:     161596
  Task:    46 matrix size:     200028
  Task:    47 matrix size:     185123
  Task:    48 matrix size:     128778
  Task:    49 matrix size:     359345
  Task:    50 matrix size:     407812
  Task:    51 matrix size:     240361
  Task:    52 matrix size:     294266
  Task:    53 matrix size:     356569
  Task:    54 matrix size:     287223
  Task:    55 matrix size:     169596
  Integrating Hamiltonian matrix: batch-based integration.
  Time summed over all CPUs for integration: real work       78.115 s, elapsed      139.070 s
  Time get_set_sparse_local_matrix_scalapack:     0.010616 s
  Start compute_balanced_batch_distribution
  Done load balancing, time needed:      0.005 s
  Integrating overlap matrix with loadbalancing
  Time summed over all CPUs for integration: real work       21.466 s, elapsed       24.699 s
  Time get_set_full_local_matrix_scalapack:     0.010110 s

  Updating Kohn-Sham eigenvalues and eigenvectors using ELSI and the ELPA eigensolver.
  Overlap matrix is not singular
  | Lowest and highest eigenvalues :  0.11E+02,  0.87E-04
  Finished singularity check of overlap matrix
  | Time :     3.766 s
  Finished Cholesky decomposition
  | Time :     0.020 s
  Finished transformation to standard eigenproblem
  | Time :     0.010 s
  Starting ELPA eigensolver
  Finished solving standard eigenproblem
  | Time :     0.064 s
  Finished back-transformation of eigenvectors
  | Time :     0.003 s

  Obtaining occupation numbers and chemical potential using ELSI.
  | Chemical potential (Fermi level):    -8.40183131 eV
  Writing Kohn-Sham eigenvalues.

  State    Occupation    Eigenvalue [Ha]    Eigenvalue [eV]
      1       2.00000         -10.174924         -276.87376
      2       2.00000         -10.174017         -276.84909
      3       2.00000         -10.172836         -276.81695
      4       2.00000         -10.172721         -276.81382
      5       2.00000         -10.172272         -276.80161
      6       2.00000         -10.171584         -276.78289
      7       2.00000         -10.171371         -276.77708
      8       2.00000         -10.171300         -276.77515
      9       2.00000         -10.171147         -276.77098
     10       2.00000         -10.169932         -276.73793
     11       2.00000         -10.169818         -276.73483
     12       2.00000         -10.168638         -276.70272
     13       2.00000         -10.168283         -276.69305
     14       2.00000         -10.167889         -276.68234
     15       2.00000         -10.167492         -276.67153
     16       2.00000         -10.167220         -276.66414
     17       2.00000         -10.166875         -276.65474
     18       2.00000         -10.166826         -276.65341
     19       2.00000         -10.165276         -276.61122
     20       2.00000         -10.164498         -276.59007
     21       2.00000          -1.023775          -27.85833
     22       2.00000          -1.000224          -27.21747
     23       2.00000          -0.970743          -26.41527
     24       2.00000          -0.964790          -26.25327
     25       2.00000          -0.929752          -25.29984
     26       2.00000          -0.905812          -24.64841
     27       2.00000          -0.887190          -24.14167
     28       2.00000          -0.883934          -24.05307
     29       2.00000          -0.867626          -23.60931
     30       2.00000          -0.848871          -23.09896
     31       2.00000          -0.787567          -21.43079
     32       2.00000          -0.773806          -21.05633
     33       2.00000          -0.767794          -20.89275
     34       2.00000          -0.756614          -20.58851
     35       2.00000          -0.739531          -20.12365
     36       2.00000          -0.704579          -19.17257
     37       2.00000          -0.680028          -18.50450
     38       2.00000          -0.671903          -18.28342
     39       2.00000          -0.658855          -17.92835
     40       2.00000          -0.647011          -17.60606
     41       2.00000          -0.631704          -17.18953
     42       2.00000          -0.622379          -16.93578
     43       2.00000          -0.613237          -16.68702
     44       2.00000          -0.598225          -16.27853
     45       2.00000          -0.589375          -16.03771
     46       2.00000          -0.585429          -15.93034
     47       2.00000          -0.576248          -15.68051
     48       2.00000          -0.561896          -15.28998
     49       2.00000          -0.553782          -15.06918
     50       2.00000          -0.542788          -14.77001
     51       2.00000          -0.542147          -14.75256
     52       2.00000          -0.533245          -14.51034
     53       2.00000          -0.528372          -14.37772
     54       2.00000          -0.515084          -14.01616
     55       2.00000          -0.513603          -13.97585
     56       2.00000          -0.499159          -13.58280
     57       2.00000          -0.496848          -13.51993
     58       2.00000          -0.481141          -13.09250
     59       2.00000          -0.476273          -12.96006
     60       2.00000          -0.473991          -12.89796
     61       2.00000          -0.436794          -11.88578
     62       2.00000          -0.423220          -11.51641
     63       2.00000          -0.404711          -11.01274
     64       2.00000          -0.399089          -10.85978
     65       2.00000          -0.380978          -10.36693
     66       2.00000          -0.350506           -9.53775
     67       0.00000          -0.263630           -7.17374
     68       0.00000          -0.233928           -6.36551
     69       0.00000          -0.213814           -5.81818
     70       0.00000          -0.205934           -5.60376
     71       0.00000          -0.184392           -5.01756
     72       0.00000          -0.165944           -4.51558
     73       0.00000          -0.111908           -3.04517
     74       0.00000          -0.101090           -2.75081
     75       0.00000          -0.072251           -1.96604
     76       0.00000          -0.064776           -1.76265
     77       0.00000          -0.062593           -1.70324
     78       0.00000          -0.046523           -1.26596
     79       0.00000          -0.046143           -1.25561
     80       0.00000          -0.037144           -1.01074
     81       0.00000          -0.029764           -0.80991
     82       0.00000          -0.019607           -0.53353
     83       0.00000          -0.018818           -0.51207
     84       0.00000          -0.008902           -0.24223
     85       0.00000          -0.004796           -0.13050
     86       0.00000          -0.000222           -0.00604
     87       0.00000           0.004960            0.13498
     88       0.00000           0.010583            0.28798
     89       0.00000           0.014766            0.40182
     90       0.00000           0.016580            0.45115
     91       0.00000           0.023184            0.63088
     92       0.00000           0.031735            0.86355
     93       0.00000           0.035941            0.97801
     94       0.00000           0.039928            1.08649
     95       0.00000           0.044973            1.22378
     96       0.00000           0.047965            1.30520
     97       0.00000           0.050543            1.37534
     98       0.00000           0.059065            1.60724
     99       0.00000           0.064363            1.75142
    100       0.00000           0.064921            1.76658
    101       0.00000           0.066730            1.81583
    102       0.00000           0.068444            1.86245
    103       0.00000           0.074024            2.01429
    104       0.00000           0.075765            2.06168
    105       0.00000           0.084370            2.29582
    106       0.00000           0.091148            2.48027
    107       0.00000           0.093157            2.53492
    108       0.00000           0.100660            2.73911
    109       0.00000           0.103242            2.80935
    110       0.00000           0.105542            2.87196
    111       0.00000           0.108324            2.94763
    112       0.00000           0.116370            3.16659
    113       0.00000           0.120379            3.27567
    114       0.00000           0.125158            3.40573
    115       0.00000           0.127761            3.47654
    116       0.00000           0.128543            3.49784
    117       0.00000           0.132949            3.61774
    118       0.00000           0.141250            3.84361
    119       0.00000           0.142493            3.87742
    120       0.00000           0.143444            3.90331
    121       0.00000           0.151745            4.12919
    122       0.00000           0.155075            4.21981
    123       0.00000           0.160250            4.36064
    124       0.00000           0.167236            4.55072
    125       0.00000           0.167985            4.57110
    126       0.00000           0.174306            4.74310
    127       0.00000           0.179101            4.87360
    128       0.00000           0.182526            4.96678
    129       0.00000           0.183690            4.99845
    130       0.00000           0.185702            5.05321
    131       0.00000           0.196913            5.35829
    132       0.00000           0.198889            5.41204
    133       0.00000           0.203485            5.53712
    134       0.00000           0.208247            5.66669
    135       0.00000           0.212916            5.79375
    136       0.00000           0.220277            5.99403
    137       0.00000           0.223510            6.08203
    138       0.00000           0.224752            6.11580
    139       0.00000           0.233640            6.35767
    140       0.00000           0.236330            6.43086
    141       0.00000           0.240008            6.53094
    142       0.00000           0.242522            6.59936
    143       0.00000           0.251422            6.84154
    144       0.00000           0.262008            7.12960

  Highest occupied state (VBM) at     -9.53774554 eV
  | Occupation number:      2.00000000

  Lowest unoccupied state (CBM) at    -7.17374461 eV
  | Occupation number:      0.00000000

  Overall HOMO-LUMO gap:      2.36400093 eV.
  Calculating total energy contributions from superposition of free atom densities.

  Total energy components:
  | Sum of eigenvalues            :        -466.39109662 Ha      -12691.14745753 eV
  | XC energy correction          :        -110.27220522 Ha       -3000.65937591 eV
  | XC potential correction       :         141.64281561 Ha        3854.29711711 eV
  | Free-atom electrostatic energy:        -335.00447337 Ha       -9115.93553420 eV
  | Hartree energy correction     :           0.00000000 Ha           0.00000000 eV
  | Entropy correction            :           0.00000000 Ha           0.00000000 eV
  | ---------------------------
  | Total energy                  :        -770.02495961 Ha      -20953.44525053 eV
  | Total energy, T -> 0          :        -770.02495961 Ha      -20953.44525053 eV  <-- do not rely on this value for anything but (periodic) metals
  | Electronic free energy        :        -770.02495961 Ha      -20953.44525053 eV

  Derived energy quantities:
  | Kinetic energy                :         762.88963293 Ha       20759.28313269 eV
  | Electrostatic energy          :       -1422.64238732 Ha      -38712.06900731 eV
  | Energy correction for multipole
  | error in Hartree potential    :           0.00000000 Ha           0.00000000 eV
  | Sum of eigenvalues per atom                           :        -396.59835805 eV
  | Total energy (T->0) per atom                          :        -654.79516408 eV  <-- do not rely on this value for anything but (periodic) metals
  | Electronic free energy per atom                       :        -654.79516408 eV
  Initialize hartree_potential_storage
  Max. number of atoms included in rho_multipole:           32

  End scf initialization - timings             :  max(cpu_time)    wall_clock(cpu1)
  | Time for scf. initialization               :        3.919 s           7.693 s
  | Boundary condition initialization          :        0.001 s           0.004 s
  | Integration                                :        2.959 s           2.970 s
  | Solution of K.-S. eqns.                    :        0.162 s           3.888 s
  | Grid partitioning                          :        0.366 s           0.370 s
  | Preloading free-atom quantities on grid    :        0.016 s           0.020 s
  | Free-atom superposition energy             :        0.040 s           0.040 s
  | Total energy evaluation                    :        0.001 s           0.004 s

  Partial memory accounting:
  | Current value for overall tracked memory usage on task 0  :           2.363 MB
  | Peak value for overall tracked memory usage on task 0     :          21.613 MB after allocating zora_vector2
  | Largest tracked array allocation on task 0 so far         :           5.578 MB  when allocating hamiltonian_shell
  Note:  These values currently only include a subset of arrays which are explicitly tracked.
  The "true" memory usage will be greater.
------------------------------------------------------------

------------------------------------------------------------
          Begin self-consistency iteration #    1

  Date     :  20210620, Time     :  161215.325
------------------------------------------------------------
  Evaluating new KS density.
  Integration grid: deviation in total charge (<rho> - N_e) =   1.136868E-13
  Pulay mixing of updated and previous charge densities.

  Evaluating partitioned Hartree potential by multipole expansion.
  | Analytical far-field extrapolation by fixed multipoles:
  | Hartree multipole sum: apparent total charge =   0.791786E-04
  Summing up the Hartree potential with load balancing.
  Time summed over all CPUs for potential: real work       12.130 s, elapsed       18.033 s
  | RMS charge density error from multipole expansion :   0.108150E-01

  Start compute_balanced_batch_distribution
  Done load balancing, time needed:      0.004 s
  Integrating Hamiltonian matrix: batch-based integration with load balancing
  Time summed over all CPUs for integration: real work       84.298 s, elapsed       94.291 s
  Time get_set_full_local_matrix_scalapack:     0.010232 s
  Start compute_balanced_batch_distribution
  Done load balancing, time needed:      0.004 s

  Updating Kohn-Sham eigenvalues and eigenvectors using ELSI and the ELPA eigensolver.
  Finished transformation to standard eigenproblem
  | Time :     0.008 s
  Starting ELPA eigensolver
  Finished solving standard eigenproblem
  | Time :     0.044 s
  Finished back-transformation of eigenvectors
  | Time :     0.003 s

  Obtaining occupation numbers and chemical potential using ELSI.
  | Chemical potential (Fermi level):    -4.03999176 eV
  Writing Kohn-Sham eigenvalues.

  State    Occupation    Eigenvalue [Ha]    Eigenvalue [eV]
      1       2.00000          -9.977460         -271.50050
      2       2.00000          -9.974835         -271.42908
      3       2.00000          -9.973484         -271.39231
      4       2.00000          -9.971111         -271.32774
      5       2.00000          -9.970856         -271.32079
      6       2.00000          -9.969449         -271.28252
      7       2.00000          -9.968785         -271.26444
      8       2.00000          -9.968204         -271.24862
      9       2.00000          -9.953661         -270.85288
     10       2.00000          -9.953407         -270.84598
     11       2.00000          -9.952546         -270.82255
     12       2.00000          -9.951805         -270.80240
     13       2.00000          -9.950566         -270.76866
     14       2.00000          -9.950125         -270.75669
     15       2.00000          -9.949733         -270.74601
     16       2.00000          -9.949025         -270.72675
     17       2.00000          -9.948010         -270.69912
     18       2.00000          -9.943990         -270.58973
     19       2.00000          -9.943240         -270.56933
     20       2.00000          -9.941451         -270.52064
     21       2.00000          -0.875365          -23.81990
     22       2.00000          -0.847384          -23.05849
     23       2.00000          -0.817610          -22.24829
     24       2.00000          -0.813818          -22.14512
     25       2.00000          -0.776412          -21.12724
     26       2.00000          -0.760284          -20.68839
     27       2.00000          -0.739320          -20.11792
     28       2.00000          -0.734633          -19.99039
     29       2.00000          -0.716815          -19.50554
     30       2.00000          -0.697788          -18.98779
     31       2.00000          -0.641521          -17.45669
     32       2.00000          -0.629122          -17.11928
     33       2.00000          -0.626946          -17.06007
     34       2.00000          -0.614703          -16.72693
     35       2.00000          -0.597880          -16.26913
     36       2.00000          -0.563733          -15.33996
     37       2.00000          -0.540626          -14.71118
     38       2.00000          -0.530184          -14.42704
     39       2.00000          -0.524293          -14.26675
     40       2.00000          -0.511696          -13.92397
     41       2.00000          -0.493456          -13.42763
     42       2.00000          -0.483173          -13.14781
     43       2.00000          -0.476169          -12.95722
     44       2.00000          -0.456563          -12.42372
     45       2.00000          -0.448662          -12.20870
     46       2.00000          -0.444001          -12.08189
     47       2.00000          -0.434062          -11.81143
     48       2.00000          -0.426964          -11.61828
     49       2.00000          -0.420349          -11.43827
     50       2.00000          -0.415913          -11.31756
     51       2.00000          -0.413443          -11.25035
     52       2.00000          -0.406494          -11.06127
     53       2.00000          -0.396107          -10.77861
     54       2.00000          -0.388937          -10.58353
     55       2.00000          -0.375501          -10.21790
     56       2.00000          -0.364219           -9.91090
     57       2.00000          -0.357554           -9.72954
     58       2.00000          -0.351241           -9.55776
     59       2.00000          -0.350126           -9.52740
     60       2.00000          -0.336960           -9.16915
     61       2.00000          -0.310859           -8.45889
     62       2.00000          -0.298320           -8.11771
     63       2.00000          -0.278610           -7.58135
     64       2.00000          -0.272085           -7.40381
     65       2.00000          -0.253389           -6.89506
     66       2.00000          -0.223380           -6.07847
     67       0.00000          -0.137845           -3.75096
     68       0.00000          -0.109255           -2.97297
     69       0.00000          -0.090651           -2.46675
     70       0.00000          -0.082318           -2.23998
     71       0.00000          -0.061024           -1.66053
     72       0.00000          -0.040214           -1.09427
     73       0.00000          -0.027346           -0.74413
     74       0.00000          -0.021477           -0.58442
     75       0.00000          -0.019559           -0.53223
     76       0.00000          -0.006325           -0.17210
     77       0.00000          -0.001902           -0.05176
     78       0.00000           0.008652            0.23543
     79       0.00000           0.013742            0.37395
     80       0.00000           0.016040            0.43646
     81       0.00000           0.021434            0.58324
     82       0.00000           0.032429            0.88243
     83       0.00000           0.037117            1.01000
     84       0.00000           0.057239            1.55756
     85       0.00000           0.058108            1.58119
     86       0.00000           0.068468            1.86311
     87       0.00000           0.072318            1.96787
     88       0.00000           0.074321            2.02238
     89       0.00000           0.086990            2.36711
     90       0.00000           0.094239            2.56438
     91       0.00000           0.097278            2.64707
     92       0.00000           0.101669            2.76656
     93       0.00000           0.104100            2.83270
     94       0.00000           0.113805            3.09678
     95       0.00000           0.116435            3.16835
     96       0.00000           0.121366            3.30254
     97       0.00000           0.123774            3.36807
     98       0.00000           0.132111            3.59492
     99       0.00000           0.133250            3.62591
    100       0.00000           0.138274            3.76263
    101       0.00000           0.139807            3.80434
    102       0.00000           0.143025            3.89191
    103       0.00000           0.152279            4.14373
    104       0.00000           0.153012            4.16367
    105       0.00000           0.157447            4.28435
    106       0.00000           0.163431            4.44719
    107       0.00000           0.167449            4.55651
    108       0.00000           0.172301            4.68856
    109       0.00000           0.175708            4.78126
    110       0.00000           0.177574            4.83202
    111       0.00000           0.180228            4.90426
    112       0.00000           0.183691            4.99848
    113       0.00000           0.186987            5.08817
    114       0.00000           0.189747            5.16329
    115       0.00000           0.193315            5.26038
    116       0.00000           0.200639            5.45967
    117       0.00000           0.200833            5.46495
    118       0.00000           0.203625            5.54093
    119       0.00000           0.208673            5.67828
    120       0.00000           0.217523            5.91911
    121       0.00000           0.219559            5.97451
    122       0.00000           0.228189            6.20934
    123       0.00000           0.230239            6.26512
    124       0.00000           0.233412            6.35146
    125       0.00000           0.234568            6.38291
    126       0.00000           0.237650            6.46680
    127       0.00000           0.245712            6.68618
    128       0.00000           0.248133            6.75205
    129       0.00000           0.256921            6.99118
    130       0.00000           0.260171            7.07962
    131       0.00000           0.266199            7.24365
    132       0.00000           0.268984            7.31944
    133       0.00000           0.277589            7.55358
    134       0.00000           0.278938            7.59029
    135       0.00000           0.289242            7.87067
    136       0.00000           0.290735            7.91129
    137       0.00000           0.298011            8.10929
    138       0.00000           0.301318            8.19927
    139       0.00000           0.306605            8.34315
    140       0.00000           0.311749            8.48311
    141       0.00000           0.317962            8.65220
    142       0.00000           0.324981            8.84318
    143       0.00000           0.328698            8.94432
    144       0.00000           0.334926            9.11380

  Highest occupied state (VBM) at     -6.07847013 eV
  | Occupation number:      2.00000000

  Lowest unoccupied state (CBM) at    -3.75095536 eV
  | Occupation number:      0.00000000

  Overall HOMO-LUMO gap:      2.32751477 eV.

  Total energy components:
  | Sum of eigenvalues            :        -445.19682918 Ha      -12114.42209704 eV
  | XC energy correction          :        -111.68873865 Ha       -3039.20521167 eV
  | XC potential correction       :         143.48255023 Ha        3904.35884341 eV
  | Free-atom electrostatic energy:        -335.00447337 Ha       -9115.93553420 eV
  | Hartree energy correction     :         -20.92840583 Ha        -569.49089799 eV
  | Entropy correction            :           0.00000000 Ha           0.00000000 eV
  | ---------------------------
  | Total energy                  :        -769.33589680 Ha      -20934.69489748 eV
  | Total energy, T -> 0          :        -769.33589680 Ha      -20934.69489748 eV  <-- do not rely on this value for anything but (periodic) metals
  | Electronic free energy        :        -769.33589680 Ha      -20934.69489748 eV

  Derived energy quantities:
  | Kinetic energy                :         769.23783105 Ha       20932.02639276 eV
  | Electrostatic energy          :       -1426.88498921 Ha      -38827.51607858 eV
  | Energy correction for multipole
  | error in Hartree potential    :          -0.04916688 Ha          -1.33789891 eV
  | Sum of eigenvalues per atom                           :        -378.57569053 eV
  | Total energy (T->0) per atom                          :        -654.20921555 eV  <-- do not rely on this value for anything but (periodic) metals
  | Electronic free energy per atom                       :        -654.20921555 eV

  Self-consistency convergence accuracy:
  | Change of charge density      :  0.8895E+00
  | Change of sum of eigenvalues  :  0.5767E+03 eV
  | Change of total energy        :  0.1875E+02 eV

  End self-consistency iteration #     1       :  max(cpu_time)    wall_clock(cpu1)
  | Time for this iteration                    :        2.760 s           2.771 s
  | Charge density update                      :        0.642 s           0.644 s
  | Density mixing                             :        0.002 s           0.003 s
  | Hartree multipole update                   :        0.007 s           0.009 s
  | Hartree multipole summation                :        0.329 s           0.334 s
  | Integration                                :        1.687 s           1.688 s
  | Solution of K.-S. eqns.                    :        0.078 s           0.078 s
  | Total energy evaluation                    :        0.000 s           0.000 s

  Partial memory accounting:
  | Current value for overall tracked memory usage on task 0  :           2.363 MB
  | Peak value for overall tracked memory usage on task 0     :          22.149 MB after allocating zora_vector2
  | Largest tracked array allocation on task 0 so far         :           5.578 MB  when allocating hamiltonian_shell
  Note:  These values currently only include a subset of arrays which are explicitly tracked.
  The "true" memory usage will be greater.
------------------------------------------------------------

------------------------------------------------------------
          Begin self-consistency iteration #    2

  Date     :  20210620, Time     :  161219.069
------------------------------------------------------------
  Evaluating new KS density.
  Integration grid: deviation in total charge (<rho> - N_e) =   8.526513E-14
  Pulay mixing of updated and previous charge densities.

  Evaluating partitioned Hartree potential by multipole expansion.
  | Analytical far-field extrapolation by fixed multipoles:
  | Hartree multipole sum: apparent total charge =   0.790375E-04
  Summing up the Hartree potential with load balancing.
  Time summed over all CPUs for potential: real work       15.613 s, elapsed       18.313 s
  | RMS charge density error from multipole expansion :   0.191163E-01

  Integrating Hamiltonian matrix: batch-based integration with load balancing
  Time summed over all CPUs for integration: real work       85.582 s, elapsed       92.176 s
  Time get_set_full_local_matrix_scalapack:     0.011802 s

  Updating Kohn-Sham eigenvalues and eigenvectors using ELSI and the ELPA eigensolver.
  Finished transformation to standard eigenproblem
  | Time :     0.006 s
  Starting ELPA eigensolver
  Finished solving standard eigenproblem
  | Time :     0.044 s
  Finished back-transformation of eigenvectors
  | Time :     0.002 s

  Obtaining occupation numbers and chemical potential using ELSI.
  | Chemical potential (Fermi level):    -3.22236566 eV
  Highest occupied state (VBM) at     -4.95416029 eV
  | Occupation number:      2.00000000

  Lowest unoccupied state (CBM) at    -2.63947355 eV
  | Occupation number:      0.00000000

  Overall HOMO-LUMO gap:      2.31468674 eV.

  Checking to see if s.c.f. parameters should be adjusted.

  Total energy components:
  | Sum of eigenvalues            :        -438.17511029 Ha      -11923.35140440 eV
  | XC energy correction          :        -112.32044108 Ha       -3056.39470942 eV
  | XC potential correction       :         144.29561211 Ha        3926.48338282 eV
  | Free-atom electrostatic energy:        -335.00447337 Ha       -9115.93553420 eV
  | Hartree energy correction     :         -28.04253760 Ha        -763.07627306 eV
  | Entropy correction            :           0.00000000 Ha           0.00000000 eV
  | ---------------------------
  | Total energy                  :        -769.24695023 Ha      -20932.27453827 eV
  | Total energy, T -> 0          :        -769.24695023 Ha      -20932.27453827 eV  <-- do not rely on this value for anything but (periodic) metals
  | Electronic free energy        :        -769.24695023 Ha      -20932.27453827 eV

  Derived energy quantities:
  | Kinetic energy                :         769.25841723 Ha       20932.58657118 eV
  | Electrostatic energy          :       -1426.18492639 Ha      -38808.46640002 eV
  | Energy correction for multipole
  | error in Hartree potential    :          -0.08059569 Ha          -2.19312038 eV
  | Sum of eigenvalues per atom                           :        -372.60473139 eV
  | Total energy (T->0) per atom                          :        -654.13357932 eV  <-- do not rely on this value for anything but (periodic) metals
  | Electronic free energy per atom                       :        -654.13357932 eV

  Self-consistency convergence accuracy:
  | Change of charge density      :  0.4344E+00
  | Change of sum of eigenvalues  :  0.1911E+03 eV
  | Change of total energy        :  0.2420E+01 eV

  End self-consistency iteration #     2       :  max(cpu_time)    wall_clock(cpu1)
  | Time for this iteration                    :        2.769 s           9.329 s
  | Charge density update                      :        0.692 s           0.691 s
  | Density mixing                             :        0.005 s           6.563 s
  | Hartree multipole update                   :        0.013 s           0.013 s
  | Hartree multipole summation                :        0.329 s           0.330 s
  | Integration                                :        1.649 s           1.648 s
  | Solution of K.-S. eqns.                    :        0.077 s           0.078 s
  | Total energy evaluation                    :        0.000 s           0.002 s

  Partial memory accounting:
  | Current value for overall tracked memory usage on task 0  :           2.363 MB
  | Peak value for overall tracked memory usage on task 0     :          22.149 MB after allocating zora_vector2
  | Largest tracked array allocation on task 0 so far         :           5.578 MB  when allocating hamiltonian_shell
  Note:  These values currently only include a subset of arrays which are explicitly tracked.
  The "true" memory usage will be greater.
------------------------------------------------------------

------------------------------------------------------------
          Begin self-consistency iteration #    3

  Date     :  20210620, Time     :  161228.401
------------------------------------------------------------
  Evaluating new KS density.
  Integration grid: deviation in total charge (<rho> - N_e) =   1.136868E-13
  Pulay mixing of updated and previous charge densities.

  Evaluating partitioned Hartree potential by multipole expansion.
  | Analytical far-field extrapolation by fixed multipoles:
  | Hartree multipole sum: apparent total charge =   0.797402E-04
  Summing up the Hartree potential with load balancing.
  Time summed over all CPUs for potential: real work       12.234 s, elapsed       14.466 s
  | RMS charge density error from multipole expansion :   0.228062E-01

  Integrating Hamiltonian matrix: batch-based integration with load balancing
  Time summed over all CPUs for integration: real work       85.898 s, elapsed       92.284 s
  Time get_set_full_local_matrix_scalapack:     0.011896 s

  Updating Kohn-Sham eigenvalues and eigenvectors using ELSI and the ELPA eigensolver.
  Finished transformation to standard eigenproblem
  | Time :     0.007 s
  Starting ELPA eigensolver
  Finished solving standard eigenproblem
  | Time :     0.044 s
  Finished back-transformation of eigenvectors
  | Time :     0.002 s

  Obtaining occupation numbers and chemical potential using ELSI.
  | Chemical potential (Fermi level):    -3.14500801 eV
  Highest occupied state (VBM) at     -4.97306054 eV
  | Occupation number:      2.00000000

  Lowest unoccupied state (CBM) at    -2.64796195 eV
  | Occupation number:      0.00000000

  Overall HOMO-LUMO gap:      2.32509859 eV.

  Total energy components:
  | Sum of eigenvalues            :        -438.04921044 Ha      -11919.92549522 eV
  | XC energy correction          :        -112.37565005 Ha       -3057.89702181 eV
  | XC potential correction       :         144.36273349 Ha        3928.30984846 eV
  | Free-atom electrostatic energy:        -335.00447337 Ha       -9115.93553420 eV
  | Hartree energy correction     :         -28.17632604 Ha        -766.71684177 eV
  | Entropy correction            :           0.00000000 Ha           0.00000000 eV
  | ---------------------------
  | Total energy                  :        -769.24292641 Ha      -20932.16504454 eV
  | Total energy, T -> 0          :        -769.24292641 Ha      -20932.16504454 eV  <-- do not rely on this value for anything but (periodic) metals
  | Electronic free energy        :        -769.24292641 Ha      -20932.16504454 eV

  Derived energy quantities:
  | Kinetic energy                :         767.56061679 Ha       20886.38707064 eV
  | Electrostatic energy          :       -1424.42789316 Ha      -38760.65509336 eV
  | Energy correction for multipole
  | error in Hartree potential    :          -0.09121408 Ha          -2.48206146 eV
  | Sum of eigenvalues per atom                           :        -372.49767173 eV
  | Total energy (T->0) per atom                          :        -654.13015764 eV  <-- do not rely on this value for anything but (periodic) metals
  | Electronic free energy per atom                       :        -654.13015764 eV

  Self-consistency convergence accuracy:
  | Change of charge density      :  0.1500E+00
  | Change of sum of eigenvalues  :  0.3426E+01 eV
  | Change of total energy        :  0.1095E+00 eV

  End self-consistency iteration #     3       :  max(cpu_time)    wall_clock(cpu1)
  | Time for this iteration                    :        2.611 s           2.611 s
  | Charge density update                      :        0.604 s           0.601 s
  | Density mixing                             :        0.003 s           0.004 s
  | Hartree multipole update                   :        0.007 s           0.007 s
  | Hartree multipole summation                :        0.260 s           0.260 s
  | Integration                                :        1.651 s           1.651 s
  | Solution of K.-S. eqns.                    :        0.081 s           0.081 s
[...]
  |------------------------------------------------------
  | Final ELSI Output
  |------------------------------------------------------
  |
  | Physical Properties
  |   Number of electrons       :        0.13200000E+03
  |   Number of spins           :                     1
  |   Number of k-points        :                     1
  |   Number of states          :                   144
  |
  | Matrix Properties
  |   Matrix format             :           BLACS_DENSE
  |   Number of basis functions :                   960
  |   Matrix sparsity           :        0.41247830E-01
  |
  | Computational Details
  |   Parallel mode             :            MULTI_PROC
  |   Number of MPI tasks       :                    56
  |   Solver requested          :                  ELPA
  |   Number of ELSI calls      :                    18
  |
  |------------------------------------------------------
  | ELSI Project (c)  elsi-interchange.org
  |------------------------------------------------------

------------------------------------------------------------
          Post-processing: scaled ZORA corrections to eigenvalues and total energy.

  Date     :  20210620, Time     :  161307.671
------------------------------------------------------------
  Computing correction matrix for scaled ZORA eigenvalues.
  Evaluating scaled zora correction for each Kohn-Sham eigenstate.
  Evaluating scaled zora correction for each Kohn-Sham eigenstate.
  Time get_set_sparse_local_matrix_scalapack:     1.942296 s
  Writing Kohn-Sham eigenvalues.

  State    Occupation    Eigenvalue [Ha]    Eigenvalue [eV]
      1       2.00000          -9.908635         -269.62768
      2       2.00000          -9.908229         -269.61664
      3       2.00000          -9.907475         -269.59611
      4       2.00000          -9.907158         -269.58748
      5       2.00000          -9.906291         -269.56389
      6       2.00000          -9.906137         -269.55970
      7       2.00000          -9.905609         -269.54533
      8       2.00000          -9.905551         -269.54375
      9       2.00000          -9.898279         -269.34587
     10       2.00000          -9.897543         -269.32584
     11       2.00000          -9.897292         -269.31901
     12       2.00000          -9.896900         -269.30834
     13       2.00000          -9.896859         -269.30724
     14       2.00000          -9.896291         -269.29178
     15       2.00000          -9.896276         -269.29137
     16       2.00000          -9.895905         -269.28128
     17       2.00000          -9.895673         -269.27495
     18       2.00000          -9.895587         -269.27262
     19       2.00000          -9.894506         -269.24320
     20       2.00000          -9.894366         -269.23939
     21       2.00000          -0.824830          -22.44476
     22       2.00000          -0.797501          -21.70112
     23       2.00000          -0.765531          -20.83115
     24       2.00000          -0.761649          -20.72553
     25       2.00000          -0.723093          -19.67635
     26       2.00000          -0.706118          -19.21446
     27       2.00000          -0.683727          -18.60515
     28       2.00000          -0.680277          -18.51128
     29       2.00000          -0.663068          -18.04299
     30       2.00000          -0.640535          -17.42985
     31       2.00000          -0.585924          -15.94381
     32       2.00000          -0.572139          -15.56869
     33       2.00000          -0.569868          -15.50690
     34       2.00000          -0.557514          -15.17074
     35       2.00000          -0.540016          -14.69458
     36       2.00000          -0.505496          -13.75526
     37       2.00000          -0.482970          -13.14229
     38       2.00000          -0.471649          -12.83421
     39       2.00000          -0.464808          -12.64807
     40       2.00000          -0.452029          -12.30033
     41       2.00000          -0.434828          -11.83228
     42       2.00000          -0.423662          -11.52842
     43       2.00000          -0.417296          -11.35520
     44       2.00000          -0.396334          -10.78481
     45       2.00000          -0.389014          -10.58560
     46       2.00000          -0.385025          -10.47707
     47       2.00000          -0.382970          -10.42114
     48       2.00000          -0.375391          -10.21490
     49       2.00000          -0.366063           -9.96107
     50       2.00000          -0.354019           -9.63334
     51       2.00000          -0.352626           -9.59544
     52       2.00000          -0.351555           -9.56631
     53       2.00000          -0.346187           -9.42023
     54       2.00000          -0.335279           -9.12340
     55       2.00000          -0.318056           -8.65474
     56       2.00000          -0.315103           -8.57439
     57       2.00000          -0.311836           -8.48549
     58       2.00000          -0.303771           -8.26604
     59       2.00000          -0.289642           -7.88157
     60       2.00000          -0.276328           -7.51925
     61       2.00000          -0.271151           -7.37840
     62       2.00000          -0.258928           -7.04578
     63       2.00000          -0.238243           -6.48293
     64       2.00000          -0.232414           -6.32430
     65       2.00000          -0.213609           -5.81259
     66       2.00000          -0.181430           -4.93696
     67       0.00000          -0.096088           -2.61468
     68       0.00000          -0.068528           -1.86474
     69       0.00000          -0.050269           -1.36789
     70       0.00000          -0.041693           -1.13453
     71       0.00000          -0.020376           -0.55445
     72       0.00000          -0.005577           -0.15175
     73       0.00000           0.000067            0.00183
     74       0.00000           0.001658            0.04512
     75       0.00000           0.002449            0.06664
     76       0.00000           0.015056            0.40971
     77       0.00000           0.018747            0.51014
     78       0.00000           0.034819            0.94748
     79       0.00000           0.036684            0.99823
     80       0.00000           0.049234            1.33973
     81       0.00000           0.054934            1.49484
     82       0.00000           0.059236            1.61189
     83       0.00000           0.062618            1.70393
     84       0.00000           0.079315            2.15828
     85       0.00000           0.083166            2.26305
     86       0.00000           0.093260            2.53773
     87       0.00000           0.095430            2.59678
     88       0.00000           0.104235            2.83639
     89       0.00000           0.112570            3.06319
     90       0.00000           0.117068            3.18557
     91       0.00000           0.122564            3.33514
     92       0.00000           0.123213            3.35281
     93       0.00000           0.128523            3.49728
     94       0.00000           0.137534            3.74250
     95       0.00000           0.148122            4.03059
     96       0.00000           0.150028            4.08246
     97       0.00000           0.151201            4.11438
     98       0.00000           0.154320            4.19927
     99       0.00000           0.165686            4.50855
    100       0.00000           0.166181            4.52202
    101       0.00000           0.168660            4.58948
    102       0.00000           0.178705            4.86280
    103       0.00000           0.186031            5.06216
    104       0.00000           0.186992            5.08832
    105       0.00000           0.189774            5.16400
    106       0.00000           0.194273            5.28644
    107       0.00000           0.196262            5.34056
    108       0.00000           0.201114            5.47260
    109       0.00000           0.203114            5.52700
    110       0.00000           0.208109            5.66294
    111       0.00000           0.208947            5.68574
    112       0.00000           0.211166            5.74613
    113       0.00000           0.218311            5.94056
    114       0.00000           0.226050            6.15112
    115       0.00000           0.227780            6.19821
    116       0.00000           0.232419            6.32446
    117       0.00000           0.233750            6.36066
    118       0.00000           0.240115            6.53386
    119       0.00000           0.241731            6.57782
    120       0.00000           0.250669            6.82106
    121       0.00000           0.252550            6.87222
    122       0.00000           0.252950            6.88313
    123       0.00000           0.258879            7.04445
    124       0.00000           0.262512            7.14333
    125       0.00000           0.266342            7.24752
    126       0.00000           0.269448            7.33204
    127       0.00000           0.271151            7.37839
    128       0.00000           0.280679            7.63766
    129       0.00000           0.291024            7.91918
    130       0.00000           0.295686            8.04601
    131       0.00000           0.301290            8.19852
    132       0.00000           0.301965            8.21690
    133       0.00000           0.305671            8.31773
    134       0.00000           0.311110            8.46572
    135       0.00000           0.314656            8.56223
    136       0.00000           0.321037            8.73586
    137       0.00000           0.328886            8.94944
    138       0.00000           0.332444            9.04627
    139       0.00000           0.337056            9.17175
    140       0.00000           0.343626            9.35053
    141       0.00000           0.347155            9.44656
    142       0.00000           0.351541            9.56591
    143       0.00000           0.358531            9.75612
    144       0.00000           0.367235            9.99296

  Highest occupied state (VBM) at     -4.93695621 eV
  | Occupation number:      2.00000000

  Lowest unoccupied state (CBM) at    -2.61467834 eV
  | Occupation number:      0.00000000

  Overall HOMO-LUMO gap:      2.32227787 eV.

  Total energy components:
  | Sum of eigenvalues            :        -437.96012374 Ha      -11917.50132262 eV
  | XC energy correction          :        -112.33444742 Ha       -3056.77584123 eV
  | XC potential correction       :         144.30898856 Ha        3926.84737455 eV
  | Free-atom electrostatic energy:        -335.00447337 Ha       -9115.93553420 eV
  | Hartree energy correction     :         -28.08264333 Ha        -764.16760545 eV
  | Entropy correction            :           0.00000000 Ha           0.00000000 eV
  | ---------------------------
  | Total energy                  :        -769.07269929 Ha      -20927.53292895 eV
  | Total energy, T -> 0          :        -769.07269929 Ha      -20927.53292895 eV  <-- do not rely on this value for anything but (periodic) metals
  | Electronic free energy        :        -769.07269929 Ha      -20927.53292895 eV

  Derived energy quantities:
  | Kinetic energy                :         767.15654957 Ha       20875.39184195 eV
  | Electrostatic energy          :       -1423.89480145 Ha      -38746.14892967 eV
  | Energy correction for multipole
  | error in Hartree potential    :          -0.09285127 Ha          -2.52661169 eV
  | Sum of eigenvalues per atom                           :        -372.42191633 eV
  | Total energy (T->0) per atom                          :        -653.98540403 eV  <-- do not rely on this value for anything but (periodic) metals
  | Electronic free energy per atom                       :        -653.98540403 eV
  End evaluation of scaled ZORA corrections.
  | Time for scaled ZORA corrections           :        2.723 s           2.733 s
------------------------------------------------------------

  Energy and forces in a compact form:
  | Total energy uncorrected      :         -0.209275329289511E+05 eV
  | Total energy corrected        :         -0.209275329289511E+05 eV  <-- do not rely on this value for anything but (periodic) metals
  | Electronic free energy        :         -0.209275329289511E+05 eV

  ------------------------------------ 
  Start decomposition of the XC Energy 
  ------------------------------------ 
  X and C from original XC functional choice 
  Hartree-Fock Energy :          0.000000000 Ha              0.000000000 eV
  X Energy            :       -107.908178304 Ha          -2936.330930537 eV
  C Energy            :         -4.426269111 Ha           -120.444910688 eV
  Total XC Energy     :       -112.334447416 Ha          -3056.775841225 eV
  ------------------------------------ 
  LDA X and C from self-consistent density 
  X Energy LDA        :        -97.734154282 Ha          -2659.481650948 eV
  C Energy LDA        :         -8.526797221 Ha           -232.025957733 eV
  ------------------------------------ 
  End decomposition of the XC Energy 
  ------------------------------------ 

------------------------------------------------------------

------------------------------------------------------------------------------
  Final output of selected total energy values:

  The following output summarizes some interesting total energy values
  at the end of a run (AFTER all relaxation, molecular dynamics, etc.).

  | Total energy of the DFT / Hartree-Fock s.c.f. calculation      :         -20927.532928951 eV
  | Final zero-broadening corrected energy (caution - metals only) :         -20927.532928951 eV
  | For reference only, the value of 1 Hartree used in FHI-aims is :             27.211384500 eV

  Before relying on these values, please be sure to understand exactly which
  total energy value is referred to by a given number. Different objects may
  all carry the same name 'total energy'. Definitions:

  Total energy of the DFT / Hartree-Fock s.c.f. calculation:
  | Note that this energy does not include ANY quantities calculated after the
  | s.c.f. cycle, in particular not ANY RPA, MP2, etc. many-body perturbation terms.
  | Scalar relativistic effects have been included in the 'scaled ZORA' approximation.

  Final zero-broadening corrected energy:
  | For metallic systems only, a broadening of the occupation numbers at the Fermi
  | level can be extrapolated back to zero broadening by an electron-gas inspired
  | formula. For all systems that are not real metals, this value can be
  | meaningless and should be avoided.

------------------------------------------------------------------------------
  Methods described in the following list of references were used in this FHI-aims run.
  If you publish the results, please make sure to cite these reference if they apply.
  FHI-aims is an academic code, and for our developers (often, Ph.D. students
  and postdocs), scientific credit in the community is essential.
  Thank you for helping us!

  For any use of FHI-aims, please cite:

    Volker Blum, Ralf Gehrke, Felix Hanke, Paula Havu, Ville Havu,
    Xinguo Ren, Karsten Reuter, and Matthias Scheffler
    'Ab initio molecular simulations with numeric atom-centered orbitals'
    Computer Physics Communications 180, 2175-2196 (2009)
    http://dx.doi.org/10.1016/j.cpc.2009.06.022


  The scalable eigensolver library ELPA was used in your run.
  ELPA is essential especially for large systems on hundreds or thousands of CPUs.
  For ELPA, please cite:

    Andreas Marek, Volker Blum, Rainer Johanni, Ville Havu, Bruno Lang,
    Thomas Auckenthaler, Alexander Heinecke, Hans-Joachim Bungartz, and Hermann Lederer,
    'The ELPA Library - Scalable Parallel Eigenvalue Solutions
    for Electronic Structure Theory and Computational Science'
    The Journal of Physics: Condensed Matter 26, 213201 (2014).
    http://dx.doi.org/10.1088/0953-8984/26/21/213201


  The ELSI infrastructure was used in your run to solve the Kohn-Sham electronic structure.
  Please check out http://elsi-interchange.org to learn more.
  If scalability is important for your project, please acknowledge ELSI by citing:

    V. W-z. Yu, F. Corsetti, A. Garcia, W. P. Huhn, M. Jacquelin, W. Jia,
    B. Lange, L. Lin, J. Lu, W. Mi, A. Seifitokaldani, A. Vazquez-Mayagoitia,
    C. Yang, H. Yang, and V. Blum
    'ELSI: A unified software interface for Kohn-Sham electronic structure solvers'
    Computer Physics Communications 222, 267-285 (2018).
    http://dx.doi.org/10.1016/j.cpc.2017.09.007


  For the real-space grid partitioning and parallelization used in this calculation, please cite:

    Ville Havu, Volker Blum, Paula Havu, and Matthias Scheffler,
    'Efficient O(N) integration for all-electron electronic structure calculation'
    'using numerically tabulated basis functions'
    Journal of Computational Physics 228, 8367-8379 (2009).
    http://dx.doi.org/10.1016/j.jcp.2009.08.008

  Of course, there are many other important community references, e.g., those cited in the
  above references. Our list is limited to references that describe implementations in the
  FHI-aims code. The reason is purely practical (length of this list) - please credit others as well.

------------------------------------------------------------
          Leaving FHI-aims.
          Date     :  20210620, Time     :  161310.460

          Computational steps:
          | Number of self-consistency cycles          :           17
          | Number of SCF (re)initializations          :            1

          Detailed time accounting                     :  max(cpu_time)    wall_clock(cpu1)
          | Total time                                 :       51.790 s          63.235 s
          | Preparation time                           :        0.193 s           0.207 s
          | Boundary condition initalization           :        0.001 s           0.004 s
          | Grid partitioning                          :        0.366 s           0.370 s
          | Preloading free-atom quantities on grid    :        0.016 s           0.020 s
          | Free-atom superposition energy             :        0.040 s           0.040 s
          | Total time for integrations                :       31.160 s          31.173 s
          | Total time for solution of K.-S. equations :        1.470 s           5.201 s
          | Total time for density update              :       10.408 s          10.365 s
          | Total time for mixing                      :        0.086 s           6.649 s
          | Total time for Hartree multipole update    :        0.120 s           0.128 s
          | Total time for Hartree multipole sum       :        4.564 s           4.568 s
          | Total time for total energy evaluation     :        0.005 s           0.034 s
          | Total time for scaled ZORA corrections     :        2.723 s           2.733 s

          Partial memory accounting:
          | Residual value for overall tracked memory usage across tasks :     0.000000 MB (should be 0.000000 MB)
          | Peak values for overall tracked memory usage (after allocating zora_vector2):
          |   Minimum:       20.743 MB (on task 35)
          |   Maximum:       24.347 MB (on task 18)
          |   Average:       22.500 MB
          | Largest tracked array allocation (hamiltonian_shell):
          |   Minimum:        5.578 MB (on task  1)
          |   Maximum:        5.578 MB (on task  1)
          |   Average:        5.578 MB
          Note:  These values currently only include a subset of arrays which are explicitly tracked.
          The "true" memory usage will be greater.

          Have a nice day.
------------------------------------------------------------
