  MPI-parallelism will be employed.
------------------------------------------------------------
          Invoking FHI-aims ...
          Version 180607
          Git rev. (modified): 6724847 Fix JSON memory corruption in scf_solver
          Compiled on 2018/06/27 at 16:00:31 on host coe.psc.edu.

          When using FHI-aims, please cite the following reference:

          Volker Blum, Ralf Gehrke, Felix Hanke, Paula Havu,
          Ville Havu, Xinguo Ren, Karsten Reuter, and Matthias Scheffler,
          'Ab Initio Molecular Simulations with Numeric Atom-Centered Orbitals',
          Computer Physics Communications 180, 2175-2196 (2009)

          For any questions about FHI-aims, please visit the aimsclub website
          with its forums and wiki. Contributions to both the forums and the
          wiki are warmly encouraged - they are for you, and everyone is welcome there.

------------------------------------------------------------



  Date     :  20210727, Time     :  231755.392
  Time zero on CPU 1             :   0.334703000000000E+00  s.
  Internal wall clock time zero  :           396659875.392  s.

  FHI-aims created a unique identifier for this run for later identification
  aims_uuid : F09CBEBD-1C17-4EBD-ABDE-0DE515EBA502

  Using       56 parallel tasks.
  Task        0 on host d032 reporting.
  Task        1 on host d032 reporting.
  Task        2 on host d032 reporting.
  Task        3 on host d032 reporting.
  Task        4 on host d032 reporting.
  Task        5 on host d032 reporting.
  Task        6 on host d032 reporting.
  Task        7 on host d032 reporting.
  Task        8 on host d032 reporting.
  Task        9 on host d032 reporting.
  Task       10 on host d032 reporting.
  Task       11 on host d032 reporting.
  Task       12 on host d032 reporting.
  Task       13 on host d032 reporting.
  Task       14 on host d032 reporting.
  Task       15 on host d032 reporting.
  Task       16 on host d032 reporting.
  Task       17 on host d032 reporting.
  Task       18 on host d032 reporting.
  Task       19 on host d032 reporting.
  Task       20 on host d032 reporting.
  Task       21 on host d032 reporting.
  Task       22 on host d032 reporting.
  Task       23 on host d032 reporting.
  Task       24 on host d032 reporting.
  Task       25 on host d032 reporting.
  Task       26 on host d032 reporting.
  Task       27 on host d032 reporting.
  Task       28 on host d032 reporting.
  Task       29 on host d032 reporting.
  Task       30 on host d032 reporting.
  Task       31 on host d032 reporting.
  Task       32 on host d032 reporting.
  Task       33 on host d032 reporting.
  Task       34 on host d032 reporting.
  Task       35 on host d032 reporting.
  Task       36 on host d032 reporting.
  Task       37 on host d032 reporting.
  Task       38 on host d032 reporting.
  Task       39 on host d032 reporting.
  Task       40 on host d032 reporting.
  Task       41 on host d032 reporting.
  Task       42 on host d032 reporting.
  Task       43 on host d032 reporting.
  Task       44 on host d032 reporting.
  Task       45 on host d032 reporting.
  Task       46 on host d032 reporting.
  Task       47 on host d032 reporting.
  Task       48 on host d032 reporting.
  Task       49 on host d032 reporting.
  Task       50 on host d032 reporting.
  Task       51 on host d032 reporting.
  Task       52 on host d032 reporting.
  Task       53 on host d032 reporting.
  Task       54 on host d032 reporting.
  Task       55 on host d032 reporting.

  Performing system and environment tests:
  *** Environment variable OMP_NUM_THREADS is not set
  *** For performance reasons you might want to set it to 1
  | Stacksize not measured: no C compiler
  | Checking for scalapack...
  | Testing pdtran()...
  | All pdtran() tests passed.

  Obtaining array dimensions for all initial allocations:
  
  -----------------------------------------------------------------------
  Parsing control.in (first pass over file, find array dimensions only).
  The contents of control.in will be repeated verbatim below
  unless switched off by setting 'verbatim_writeout .false.' .
  in the first line of control.in .
  -----------------------------------------------------------------------
  
  #===============================================================================
  # FHI-aims file: ./Runs/es/control.in
  # Created using the Atomic Simulation Environment (ASE)
  # Mon Jan 13 16:04:38 2020
  #===============================================================================
  xc                                 pbe
  relativistic                       zora scalar 1e-12
  occupation_type                    gaussian 0.0001
  load_balancing                     .true.
  KS_method                          scalapack_fast
  mixer                              pulay
  n_max_pulay                        5
  charge_mix_param                   0.4
  sc_accuracy_etot                   1e-6
  sc_accuracy_eev                    1e-4
  sc_accuracy_rho                    1e-6
  sc_iter_limit                      100
  prodbas_threshold                  1e-4
  basis_threshold                    1e-5
  override_illconditioning           .true.
  use_logsbt                         .true.
  spin                               none
  charge                             0
  #===============================================================================
  
  ################################################################################
  #
  #  FHI-aims code project
  # Volker Blum, Fritz Haber Institute Berlin, 2009
  #
  #  Suggested "tight" defaults for H atom (to be pasted into control.in file)
  #
  ################################################################################
    species        H
  #     global species definitions
      nucleus             1
      mass                1.00794
  #
      l_hartree           6
  #
      cut_pot             4.0  2.0  1.0
      basis_dep_cutoff    1e-4
  #
      radial_base         24 7.0
      radial_multiplier   2
      angular_grids       specified
        division   0.1930   50
        division   0.3175  110
        division   0.4293  194
        division   0.5066  302
        division   0.5626  434
  #      division   0.5922  590
  #      division   0.6227  974
  #      division   0.6868 1202
  #      outer_grid  770
        outer_grid  434
  ################################################################################
  #
  #  Definition of "minimal" basis
  #
  ################################################################################
  #     valence basis states
      valence      1  s   1.
  #     ion occupancy
      ion_occ      1  s   0.5
  ################################################################################
  #
  #  Suggested additional basis functions. For production calculations,
  #  uncomment them one after another (the most important basis functions are
  #  listed first).
  #
  #  Basis constructed for dimers: 0.5 A, 0.7 A, 1.0 A, 1.5 A, 2.5 A
  #
  ################################################################################
  #  "First tier" - improvements: -1014.90 meV to -62.69 meV
       hydro 2 s 2.1
       hydro 2 p 3.5
  #  "Second tier" - improvements: -12.89 meV to -1.83 meV
       hydro 1 s 0.85
       hydro 2 p 3.7
       hydro 2 s 1.2
       hydro 3 d 7
  #  "Third tier" - improvements: -0.25 meV to -0.12 meV
  #     hydro 4 f 11.2
  #     hydro 3 p 4.8
  #     hydro 4 d 9
  #     hydro 3 s 3.2
  ################################################################################
  #
  # For methods that use the localized form of the "resolution of identity" for
  # the two-electron Coulomb operator (RI_method LVL), particularly Hartree-Fock and
  # hybrid density functional calculations, the highest accuracy can be obtained by
  # uncommenting the line beginning with "for_aux"  below, thus adding an extra g radial
  # function to the construction of the product basis set for the expansion.
  # See Ref. New J. Phys. 17, 093020 (2015) for more information, particularly Figs. 1 and 6.
  #
  ################################################################################
  #
  # for_aux hydro 5 g 6.0
  ################################################################################
  #
  #  FHI-aims code project
  # Volker Blum, Fritz Haber Institute Berlin, 2009
  #
  #  Suggested "tight" defaults for C atom (to be pasted into control.in file)
  #
  ################################################################################
    species        C
  #     global species definitions
      nucleus             6
      mass                12.0107
  #
      l_hartree           6
  #
      cut_pot             4.0  2.0  1.0
      basis_dep_cutoff    1e-4
  #
      radial_base         34 7.0
      radial_multiplier   2
      angular_grids specified
        division   0.2187   50
        division   0.4416  110
        division   0.6335  194
        division   0.7727  302
        division   0.8772  434
  #      division   0.9334  590
  #      division   0.9924  770
  #      division   1.0230  974
  #      division   1.5020 1202
  #     outer_grid  974
        outer_grid  434
  ################################################################################
  #
  #  Definition of "minimal" basis
  #
  ################################################################################
  #     valence basis states
      valence      2  s   2.
      valence      2  p   2.
  #     ion occupancy
      ion_occ      2  s   1.
      ion_occ      2  p   1.
  ################################################################################
  #
  #  Suggested additional basis functions. For production calculations,
  #  uncomment them one after another (the most important basis functions are
  #  listed first).
  #
  #  Constructed for dimers: 1.0 A, 1.25 A, 1.5 A, 2.0 A, 3.0 A
  #
  ################################################################################
  #  "First tier" - improvements: -1214.57 meV to -155.61 meV
       hydro 2 p 1.7
       hydro 3 d 6
       hydro 2 s 4.9
  #  "Second tier" - improvements: -67.75 meV to -5.23 meV
       hydro 4 f 9.8
       hydro 3 p 5.2
       hydro 3 s 4.3
       hydro 5 g 14.4
       hydro 3 d 6.2
  #  "Third tier" - improvements: -2.43 meV to -0.60 meV
  #     hydro 2 p 5.6
  #     hydro 2 s 1.4
  #     hydro 3 d 4.9
  #     hydro 4 f 11.2
  #  "Fourth tier" - improvements: -0.39 meV to -0.18 meV
  #     hydro 2 p 2.1
  #     hydro 5 g 16.4
  #     hydro 4 d 13.2
  #     hydro 3 s 13.6
  #     hydro 4 f 17.6
  #  Further basis functions - improvements: -0.08 meV and below
  #     hydro 3 s 2
  #     hydro 3 p 6
  #     hydro 4 d 20
  ################################################################################
  #
  # For methods that use the localized form of the "resolution of identity" for
  # the two-electron Coulomb operator (RI_method LVL), particularly Hartree-Fock and
  # hybrid density functional calculations, the highest accuracy can be obtained by
  # uncommenting the line beginning with "for_aux"  below, thus adding an extra g radial
  # function to the construction of the product basis set for the expansion.
  # See Ref. New J. Phys. 17, 093020 (2015) for more information, particularly Figs. 1 and 6.
  #
  ################################################################################
  #
  # for_aux hydro 5 g 6.0
  
  -----------------------------------------------------------------------
  Completed first pass over input file control.in .
  -----------------------------------------------------------------------
  
  
  -----------------------------------------------------------------------
  Parsing geometry.in (first pass over file, find array dimensions only).
  The contents of geometry.in will be repeated verbatim below
  unless switched off by setting 'verbatim_writeout .false.' .
  in the first line of geometry.in .
  -----------------------------------------------------------------------
  
  #=======================================================
  # FHI-aims file: geometry.in
  # Created using the Atomic Simulation Environment (ASE)
  # Mon Jul 26 17:53:15 2021
  #=======================================================
  atom 50.7023930000000007 68.7635800000000046 19.7134339999999995 C
  atom 49.8765169999999998 67.8766339999999957 20.3381639999999990 C
  atom 50.2284649999999999 69.9807990000000046 19.2961820000000017 C
  atom 51.7263360000000034 68.4720049999999958 19.4777640000000005 H
  atom 48.5247200000000021 68.2042450000000002 20.6436379999999993 C
  atom 50.2561830000000000 66.8872970000000038 20.5870369999999987 H
  atom 48.9366580000000013 70.3723339999999951 19.6116099999999989 C
  atom 50.8579659999999976 70.6480099999999993 18.7087280000000007 H
  atom 47.5968590000000020 67.2347309999999965 21.2086509999999997 C
  atom 48.0927849999999992 69.5040330000000068 20.3251489999999997 C
  atom 48.5549800000000005 71.3175169999999952 19.2402580000000007 H
  atom 46.2210660000000004 67.5623410000000035 21.2676020000000001 C
  atom 48.0107969999999966 65.9562509999999946 21.6381529999999991 C
  atom 46.7129919999999998 69.8955669999999998 20.6604819999999982 C
  atom 45.3032030000000034 66.5901640000000015 21.7062910000000002 C
  atom 45.7611350000000030 68.8967549999999989 20.9368629999999989 C
  atom 47.0649390000000025 65.0240260000000063 22.0607639999999989 C
  atom 49.0595640000000017 65.6716329999999999 21.6083430000000014 H
  atom 46.3090529999999987 71.2406349999999975 20.7623059999999988 C
  atom 43.9434070000000006 66.9364190000000008 21.7568209999999986 C
  atom 45.7531359999999978 65.3036929999999955 22.1281369999999988 C
  atom 44.3693439999999981 69.2030570000000012 20.9422220000000010 C
  atom 47.4215280000000021 64.0372710000000041 22.3651340000000012 H
  atom 44.9312589999999972 71.5655820000000062 20.7707279999999983 C
  atom 47.2429130000000015 72.3166889999999967 21.0356260000000006 C
  atom 43.2354440000000011 66.2062909999999931 22.1494910000000012 H
  atom 43.4694789999999998 68.1829369999999955 21.3816769999999998 C
  atom 45.0232299999999981 64.5771019999999965 22.4831590000000006 H
  atom 43.9614049999999992 70.5348070000000007 20.6888089999999991 C
  atom 44.4953250000000011 72.9452749999999952 20.9177229999999987 C
  atom 46.8209760000000017 73.5951680000000010 21.2423380000000002 C
  atom 48.2921019999999999 72.0767730000000029 21.1736199999999997 H
  atom 42.4158589999999975 68.4050239999999974 21.5128030000000017 H
  atom 42.5716129999999993 70.9130239999999930 20.3741470000000007 C
  atom 43.1175309999999996 73.2728850000000023 20.8756149999999998 C
  atom 45.4531810000000007 73.9440869999999961 21.1787929999999989 C
  atom 47.5408749999999998 74.3626339999999999 21.5266500000000001 H
  atom 41.6817470000000014 69.9674820000000039 19.8175559999999997 C
  atom 42.1576749999999976 72.2474380000000025 20.5257359999999984 C
  atom 42.7555860000000010 74.6206159999999983 21.0739060000000009 C
  atom 45.0312440000000009 75.2625189999999975 21.3908640000000005 C
  atom 40.3859410000000025 70.3350449999999938 19.5182059999999993 C
  atom 42.0327780000000004 68.9703750000000042 19.5738489999999992 H
  atom 40.8018789999999996 72.5537400000000048 20.2340419999999988 C
  atom 41.7121369999999985 74.9204040000000049 21.0196070000000006 H
  atom 43.7134420000000006 75.5848029999999937 21.3112420000000000 C
  atom 45.7825320000000033 76.0243729999999971 21.6016130000000004 H
  atom 39.7232350000000025 69.6082580000000064 19.0465790000000013 H
  atom 39.9460070000000016 71.6108609999999999 19.7639640000000014 C
  atom 40.4494990000000030 73.5753030000000052 20.3607310000000012 H
  atom 43.3971190000000036 76.6202810000000056 21.4446739999999991 H
  atom 38.9178939999999969 71.8885839999999945 19.5311030000000017 H
  
  -----------------------------------------------------------------------
  Completed first pass over input file geometry.in .
  -----------------------------------------------------------------------
  

  Basic array size parameters:
  | Number of species                 :        2
  | Number of atoms                   :       52
  | Max. basis fn. angular momentum   :        4
  | Max. atomic/ionic basis occupied n:        2
  | Max. number of basis fn. types    :        2
  | Max. radial fns per species/type  :        8
  | Max. logarithmic grid size        :     1277
  | Max. radial integration grid size :       69
  | Max. angular integration grid size:      434
  | Max. angular grid division number :        8
  | Radial grid for Hartree potential :     1277
  | Number of spin channels           :        1

------------------------------------------------------------
          Reading file control.in.
------------------------------------------------------------
  XC: Using PBE gradient-corrected functionals.
  Scalar relativistic treatment of kinetic energy: ZORA.
  Threshold value for ZORA:   0.100000E-11
  Occupation type: Gaussian broadening, width =   0.100000E-03 eV.
  Since 'load_balancing .true.' is present in control.in, automatically turning on 'use_local_index .true.'.
  Using load balancing for integrations.
  Kohn-Sham electronic structure solved by the ELSI library.
  Using pulay charge density mixing.
  Pulay mixing - number of memorized iterations:    5
  Charge density mixing - mixing parameter:     0.4000
  Convergence accuracy of total energy:  0.1000E-05
  Convergence accuracy of sum of eigenvalues:  0.1000E-03
  Convergence accuracy of self-consistent charge density:  0.1000E-05
  Maximum number of s.-c. iterations  :   100
  * Ignoring prodbas_threshold
  Threshold for basis singularities:  0.1000E-04
  override_illconditioning: Explicitly overriding any built-in checks for an ill-conditioned overlap matrix.
  *** WARNING: If you use this flag, you should really know what you are doing.
  *** DO NOT keep this flag set by default in all your control.in files.
  Using 1D integrations for auxiliary 2-center integrals.
  Spin treatment: No spin polarisation.
  Charge =   0.000000E+00: Neutral system requested explicitly.
 
  Reading configuration options for species H                   .
  | Found nuclear charge :   1.0000
  | Found atomic mass :    1.00794000000000      amu
  | Found l_max for Hartree potential  :   6
  | Found cutoff potl. onset [A], width [A], scale factor :    4.00000    2.00000    1.00000
  | Threshold for basis-dependent cutoff potential is   0.100000E-03
  | Found data for basic radial integration grid :    24 points, outermost radius =    7.000 A
  | Found multiplier for basic radial grid :   2
  | Found angular grid specification: user-specified.
  | Specified grid contains     6 separate shells.
  | Check grid settings after all constraints further below.
  | Found free-atom valence shell :  1 s   1.000
  | No ionic wave fns used. Skipping ion_occ.
  | Found hydrogenic basis function :  2 s   2.100
  | Found hydrogenic basis function :  2 p   3.500
  | Found hydrogenic basis function :  1 s   0.850
  | Found hydrogenic basis function :  2 p   3.700
  | Found hydrogenic basis function :  2 s   1.200
  | Found hydrogenic basis function :  3 d   7.000
  Species H                   : Missing cutoff potential type.
  Defaulting to exp(1/x)/(1-x)^2 type cutoff potential.
  Species H : No 'logarithmic' tag. Using default grid for free atom:
  | Default logarithmic grid data [bohr] : 0.1000E-03 0.1000E+03 0.1012E+01
  Species H : On-site basis accuracy parameter (for Gram-Schmidt orthonormalisation) not specified.
  Using default value basis_acc =  0.1000000E-03.
  Species H                   : Using default innermost maximum threshold i_radial=  2 for radial functions.
  Species H                   : Default cutoff onset for free atom density etc. : 0.40000000E+01 AA.
  Species H                   : Basic radial grid will be enhanced according to radial_multiplier =   2, to contain    49 grid points.
 
  Reading configuration options for species C                   .
  | Found nuclear charge :   6.0000
  | Found atomic mass :    12.0107000000000      amu
  | Found l_max for Hartree potential  :   6
  | Found cutoff potl. onset [A], width [A], scale factor :    4.00000    2.00000    1.00000
  | Threshold for basis-dependent cutoff potential is   0.100000E-03
  | Found data for basic radial integration grid :    34 points, outermost radius =    7.000 A
  | Found multiplier for basic radial grid :   2
  | Found angular grid specification: user-specified.
  | Specified grid contains     6 separate shells.
  | Check grid settings after all constraints further below.
  | Found free-atom valence shell :  2 s   2.000
  | Found free-atom valence shell :  2 p   2.000
  | No ionic wave fns used. Skipping ion_occ.
  | No ionic wave fns used. Skipping ion_occ.
  | Found hydrogenic basis function :  2 p   1.700
  | Found hydrogenic basis function :  3 d   6.000
  | Found hydrogenic basis function :  2 s   4.900
  | Found hydrogenic basis function :  4 f   9.800
  | Found hydrogenic basis function :  3 p   5.200
  | Found hydrogenic basis function :  3 s   4.300
  | Found hydrogenic basis function :  5 g  14.400
  | Found hydrogenic basis function :  3 d   6.200
  Species C                   : Missing cutoff potential type.
  Defaulting to exp(1/x)/(1-x)^2 type cutoff potential.
  Species C : No 'logarithmic' tag. Using default grid for free atom:
  | Default logarithmic grid data [bohr] : 0.1000E-03 0.1000E+03 0.1012E+01
  Species C : On-site basis accuracy parameter (for Gram-Schmidt orthonormalisation) not specified.
  Using default value basis_acc =  0.1000000E-03.
  Species C                   : Using default innermost maximum threshold i_radial=  2 for radial functions.
  Species C                   : Default cutoff onset for free atom density etc. : 0.40000000E+01 AA.
  Species C                   : Basic radial grid will be enhanced according to radial_multiplier =   2, to contain    69 grid points.
 
  Finished reading input file 'control.in'. Consistency checks are next.
 
  MPI_IN_PLACE appears to work with this MPI implementation.
  | Keeping use_mpi_in_place .true. (see manual).
  Target number of points in a grid batch is not set. Defaulting to  100
  Method for grid partitioning is not set. Defaulting to parallel hash+maxmin partitioning.
  Batch size limit is not set. Defaulting to    200
  By default, will store active basis functions for each batch.
  If in need of memory, prune_basis_once .false. can be used to disable this option.
  communication_type for Hartree potential was not specified.
  Defaulting to calc_hartree .
  Pulay mixer: Number of initial linear mixing iterations not set.
  Defaulting to    0 iterations.
  Work space size for distributed Hartree potential not set.
  Defaulting to   0.200000E+03 MB.
  Algorithm-dependent basis array size parameters:
  | n_max_pulay                         :        5
  Presetting      1001 iterations before the initial mixing cycle
  is restarted anyway using the sc_init_iter criterion / keyword.
  Presetting a factor      1.000 between actual scf density residual
  and density convergence criterion sc_accuracy_rho below which sc_init_iter
  takes no effect.
  Calculation of forces was not defined in control.in. No forces will be calculated.
  Geometry relaxation not requested: no relaxation will be performed.
  No accuracy limit for integral partition fn. given. Defaulting to  0.1000E-14.
  No threshold value for u(r) in integrations given. Defaulting to  0.1000E-05.
  No accuracy for occupation numbers given. Defaulting to  0.1000E-12.
  No threshold value for occupation numbers given. Defaulting to  0.0000E+00.
  No accuracy for fermi level given. Defaulting to  0.1000E-19.
  Maximum # of iterations to find E_F not set. Defaulting to  200.
  Will not use alltoall communication since running on < 1024 CPUs.
  partition_type (choice of integration weights) for integrals was not specified.
  | Using a version of the partition function of Stratmann and coworkers ('stratmann_sparse').
  | At each grid point, the set of atoms used to build the partition table is smoothly restricted to
  | only those atoms whose free-atom density would be non-zero at that grid point.
  Partitioning for Hartree potential was not defined. Using partition_type for integrals.
  | Adjusted default value of keyword multip_moments_threshold to:       0.10000000E-11
  | This value may affect high angular momentum components of the Hartree potential in periodic systems.
  No q(lm)/r^(l+1) cutoff set for long-range Hartree potential.
  | Using default value of  0.100000E-09 .
  | Verify using the multipole_threshold keyword.
  Defaulting to new monopole extrapolation.
  Density update method: automatic selection selected.
 * Warning: use_local_index and/or load_balancing needs packed_matrix_format = index
 * Changing the default setting to packed_matrix_format = index
------------------------------------------------------------


------------------------------------------------------------
          Reading geometry description geometry.in.
------------------------------------------------------------
  Input structure read successfully.
  The structure contains       52 atoms,  and a total of        222.000 electrons.

  Input geometry:
  | No unit cell requested.
  | Atomic structure:
  |       Atom                x [A]            y [A]            z [A]
  |    1: Species C            50.70239300       68.76358000       19.71343400
  |    2: Species C            49.87651700       67.87663400       20.33816400
  |    3: Species C            50.22846500       69.98079900       19.29618200
  |    4: Species H            51.72633600       68.47200500       19.47776400
  |    5: Species C            48.52472000       68.20424500       20.64363800
  |    6: Species H            50.25618300       66.88729700       20.58703700
  |    7: Species C            48.93665800       70.37233400       19.61161000
  |    8: Species H            50.85796600       70.64801000       18.70872800
  |    9: Species C            47.59685900       67.23473100       21.20865100
  |   10: Species C            48.09278500       69.50403300       20.32514900
  |   11: Species H            48.55498000       71.31751700       19.24025800
  |   12: Species C            46.22106600       67.56234100       21.26760200
  |   13: Species C            48.01079700       65.95625100       21.63815300
  |   14: Species C            46.71299200       69.89556700       20.66048200
  |   15: Species C            45.30320300       66.59016400       21.70629100
  |   16: Species C            45.76113500       68.89675500       20.93686300
  |   17: Species C            47.06493900       65.02402600       22.06076400
  |   18: Species H            49.05956400       65.67163300       21.60834300
  |   19: Species C            46.30905300       71.24063500       20.76230600
  |   20: Species C            43.94340700       66.93641900       21.75682100
  |   21: Species C            45.75313600       65.30369300       22.12813700
  |   22: Species C            44.36934400       69.20305700       20.94222200
  |   23: Species H            47.42152800       64.03727100       22.36513400
  |   24: Species C            44.93125900       71.56558200       20.77072800
  |   25: Species C            47.24291300       72.31668900       21.03562600
  |   26: Species H            43.23544400       66.20629100       22.14949100
  |   27: Species C            43.46947900       68.18293700       21.38167700
  |   28: Species H            45.02323000       64.57710200       22.48315900
  |   29: Species C            43.96140500       70.53480700       20.68880900
  |   30: Species C            44.49532500       72.94527500       20.91772300
  |   31: Species C            46.82097600       73.59516800       21.24233800
  |   32: Species H            48.29210200       72.07677300       21.17362000
  |   33: Species H            42.41585900       68.40502400       21.51280300
  |   34: Species C            42.57161300       70.91302400       20.37414700
  |   35: Species C            43.11753100       73.27288500       20.87561500
  |   36: Species C            45.45318100       73.94408700       21.17879300
  |   37: Species H            47.54087500       74.36263400       21.52665000
  |   38: Species C            41.68174700       69.96748200       19.81755600
  |   39: Species C            42.15767500       72.24743800       20.52573600
  |   40: Species C            42.75558600       74.62061600       21.07390600
  |   41: Species C            45.03124400       75.26251900       21.39086400
  |   42: Species C            40.38594100       70.33504500       19.51820600
  |   43: Species H            42.03277800       68.97037500       19.57384900
  |   44: Species C            40.80187900       72.55374000       20.23404200
  |   45: Species H            41.71213700       74.92040400       21.01960700
  |   46: Species C            43.71344200       75.58480300       21.31124200
  |   47: Species H            45.78253200       76.02437300       21.60161300
  |   48: Species H            39.72323500       69.60825800       19.04657900
  |   49: Species C            39.94600700       71.61086100       19.76396400
  |   50: Species H            40.44949900       73.57530300       20.36073100
  |   51: Species H            43.39711900       76.62028100       21.44467400
  |   52: Species H            38.91789400       71.88858400       19.53110300
  |

  | The smallest distance between any two atoms is         1.08472659 AA.
  |
  | The first atom of this pair is atom number                     27 .
  | The second atom of this pair is atom number                    33 .

  Number of empty states per atom not set in control.in - providing a guess from actual geometry.
  | Total number of empty states used during s.c.f. cycle:      129
  If you use a very high smearing, use empty_states (per atom!) in control.in to increase this value.

  Structure-dependent array size parameters: 
  | Maximum number of distinct radial functions  :       18
  | Maximum number of basis functions            :     1596
  | Number of Kohn-Sham states (occupied + empty):      240
------------------------------------------------------------

------------------------------------------------------------
          Preparing all fixed parts of the calculation.
------------------------------------------------------------
  Determining machine precision:
    2.225073858507201E-308
  Setting up grids for atomic and cluster calculations.

  Creating wave function, potential, and density for free atoms.

  Species: H

  List of occupied orbitals and eigenvalues:
    n    l              occ      energy [Ha]    energy [eV]
    1    0           1.0000        -0.238386        -6.4868


  Species: C

  List of occupied orbitals and eigenvalues:
    n    l              occ      energy [Ha]    energy [eV]
    1    0           2.0000       -10.049212      -273.4530
    2    0           2.0000        -0.504761       -13.7352
    2    1           2.0000        -0.193631        -5.2690

  Creating fixed part of basis set: Ionic, confined, hydrogenic.
 
  H                    hydrogenic:
 
  List of hydrogenic basis orbitals: 
    n    l      effective z      eigenvalue [eV]  inner max. [A]     outer max. [A]     outer radius [A]   
    2    0         2.100000       -14.9965           0.193243           1.317208           5.373006
    2    1         3.500000       -41.6672           0.602369           0.602369           4.056063
    1    0         0.850000        -9.8292           0.624871           0.624871           5.373006
    2    1         3.700000       -46.5653           0.573622           0.573622           3.910002
    2    0         1.200000        -4.5995           0.334980           2.228188           5.505995
    3    2         7.000000       -74.0753           0.680699           0.680699           3.769201
 
 
  C                    hydrogenic:
 
  List of hydrogenic basis orbitals: 
    n    l      effective z      eigenvalue [eV]  inner max. [A]     outer max. [A]     outer radius [A]   
    2    1         1.700000        -9.8152           1.245706           1.245706           5.401630
    3    2         6.000000       -54.4226           0.792453           0.792453           4.178599
    2    0         4.900000       -81.6681           0.082559           0.562749           3.353238
    4    3         9.800000       -81.6681           0.863254           0.863254           4.028125
    3    1         5.200000       -40.8774           0.305389           1.215618           4.898362
    3    0         4.300000       -27.9508           0.091041           1.610311           5.401630
    5    4        14.400000      -112.8510           0.917666           0.917666           3.883070
    3    2         6.200000       -58.1113           0.763917           0.763917           4.077671
 

  Adding cutoff potential to free-atom effective potential.
  Creating atomic-like basis functions for current effective potential.

  Species H                   :

  List of atomic basis orbitals and eigenvalues:
    n    l      energy [Ha]    energy [eV]    outer radius [A]
    1    0        -0.238386        -6.4868       5.373006


  Species C                   :

  List of atomic basis orbitals and eigenvalues:
    n    l      energy [Ha]    energy [eV]    outer radius [A]
    1    0       -10.049212      -273.4530       1.934409
    2    0        -0.504761       -13.7352       5.271162
    2    1        -0.193631        -5.2690       5.401630

  Assembling full basis from fixed parts.
  | Species H :   atomic orbital   1 s accepted.
  | Species H :    hydro orbital   2 s accepted.
  | Species H :    hydro orbital   1 s accepted.
  | Species H :    hydro orbital   2 s accepted.
  | Species H :    hydro orbital   2 p accepted.
  | Species H :    hydro orbital   2 p accepted.
  | Species H :    hydro orbital   3 d accepted.
  | Species C :   atomic orbital   1 s accepted.
  | Species C :    hydro orbital   2 s accepted.
  | Species C :   atomic orbital   2 s accepted.
  | Species C :    hydro orbital   3 s accepted.
  | Species C :    hydro orbital   3 p accepted.
  | Species C :   atomic orbital   2 p accepted.
  | Species C :    hydro orbital   2 p accepted.
  | Species C :    hydro orbital   3 d accepted.
  | Species C :    hydro orbital   3 d accepted.
  | Species C :    hydro orbital   4 f accepted.
  | Species C :    hydro orbital   5 g accepted.
 
  Basis size parameters after reduction:
  | Total number of radial functions:       18
  | Total number of basis functions :     1596
 
  Per-task memory consumption for arrays in subroutine allocate_ext:
  |           4.450536MB.
  Testing on-site integration grid accuracy.
  |  Species  Function  <phi|h_atom|phi> (log., in eV)  <phi|h_atom|phi> (rad., in eV)
           1        1                 -6.4870767962                 -6.4871688290
           1        2                 13.5032046589                 13.5028982997
           1        3                 32.8195184817                 32.8119941656
           1        4                 33.8513856511                 33.7670005767 ***
           1        5                 28.8544614965                 28.8544615203
           1        6                 59.6326952547                 59.6327656460
           1        7                 60.2719308513                 60.2719305949
           2        8               -273.4529726040               -273.4529710464
           2        9                -10.7721037319                -10.7721022101
           2       10                 17.6044132601                 17.6044162063
           2       11                 53.7706460658                 53.7706913770
           2       12                 15.0973290362                 15.0973256030
           2       13                  3.8545134692                  3.8545724687
           2       14                 12.1156992592                 12.1182024431
           2       15                 29.4352039302                 29.4352041816
           2       16                 54.8741144708                 54.8740268729
           2       17                 59.3556032049                 59.3556031382
           2       18                 93.4551837154                 93.4551838009
 * Note: Onsite integrals marked "***" above are less accurate than
 * onsite_accuracy_threshold =    0.03000 eV. Usually, this is harmless.
 * When in doubt, tighten the "radial" and/or "radial_multiplier" flags to check.

  Preparing densities etc. for the partition functions (integrals / Hartree potential).

  Preparations completed.
  max(cpu_time)          :      0.197 s.
  Wall clock time (cpu1) :      0.199 s.
------------------------------------------------------------

------------------------------------------------------------
          Begin self-consistency loop: Initialization.

          Date     :  20210727, Time     :  231755.838
------------------------------------------------------------

  Initializing index lists of integration centers etc. from given atomic structure:
  | Number of centers in hartree potential         :        52
  | Number of centers in hartree multipole         :        52
  | Number of centers in electron density summation:        52
  | Number of centers in basis integrals           :        52
  | Number of centers in integrals                 :        52
  | Number of centers in hamiltonian               :        52
  * Using 56 tasks for Scalapack Eigenvalue solver.
  Detailed listing of tasks and assigned k-points:
  (for non-periodic systems, the "k-point" denotes an internal label only)
   Task     0 k-point     1 on d032
   Task     1 k-point     1 on d032
   Task     2 k-point     1 on d032
   Task     3 k-point     1 on d032
   Task     4 k-point     1 on d032
   Task     5 k-point     1 on d032
   Task     6 k-point     1 on d032
   Task     7 k-point     1 on d032
   Task     8 k-point     1 on d032
   Task     9 k-point     1 on d032
   Task    10 k-point     1 on d032
   Task    11 k-point     1 on d032
   Task    12 k-point     1 on d032
   Task    13 k-point     1 on d032
   Task    14 k-point     1 on d032
   Task    15 k-point     1 on d032
   Task    16 k-point     1 on d032
   Task    17 k-point     1 on d032
   Task    18 k-point     1 on d032
   Task    19 k-point     1 on d032
   Task    20 k-point     1 on d032
   Task    21 k-point     1 on d032
   Task    22 k-point     1 on d032
   Task    23 k-point     1 on d032
   Task    24 k-point     1 on d032
   Task    25 k-point     1 on d032
   Task    26 k-point     1 on d032
   Task    27 k-point     1 on d032
   Task    28 k-point     1 on d032
   Task    29 k-point     1 on d032
   Task    30 k-point     1 on d032
   Task    31 k-point     1 on d032
   Task    32 k-point     1 on d032
   Task    33 k-point     1 on d032
   Task    34 k-point     1 on d032
   Task    35 k-point     1 on d032
   Task    36 k-point     1 on d032
   Task    37 k-point     1 on d032
   Task    38 k-point     1 on d032
   Task    39 k-point     1 on d032
   Task    40 k-point     1 on d032
   Task    41 k-point     1 on d032
   Task    42 k-point     1 on d032
   Task    43 k-point     1 on d032
   Task    44 k-point     1 on d032
   Task    45 k-point     1 on d032
   Task    46 k-point     1 on d032
   Task    47 k-point     1 on d032
   Task    48 k-point     1 on d032
   Task    49 k-point     1 on d032
   Task    50 k-point     1 on d032
   Task    51 k-point     1 on d032
   Task    52 k-point     1 on d032
   Task    53 k-point     1 on d032
   Task    54 k-point     1 on d032
   Task    55 k-point     1 on d032
  Tasks:    56 split into      8 X      7 BLACS grid
  Calculating block size based on n_basis =         1596 max_nprow =            8 max_npcol =            7
  ScaLAPACK block size set to:           16
  Allocating        0.399 MB for ovlp
  Allocating        0.399 MB for ham
  Allocating        0.399 MB for eigenvec
  Required Scalapack workspace - INTEGER:            1 REAL:             1
  Partitioning the integration grid into batches with parallel hashing+maxmin method.
  | Number of batches:     7573
  | Maximal batch size:     200
  | Minimal batch size:       4
  | Average batch size:     115.509
  | Standard deviation of batch sizes:      34.456

  Integration load balanced across     56 MPI tasks.
  Work distribution over tasks is as follows:
  Task      0 has      15742 integration points.
  Task      1 has      15626 integration points.
  Task      2 has      15611 integration points.
  Task      3 has      15676 integration points.
  Task      4 has      15639 integration points.
  Task      5 has      15606 integration points.
  Task      6 has      15600 integration points.
  Task      7 has      15717 integration points.
  Task      8 has      15575 integration points.
  Task      9 has      15573 integration points.
  Task     10 has      15698 integration points.
  Task     11 has      15616 integration points.
  Task     12 has      15592 integration points.
  Task     13 has      15532 integration points.
  Task     14 has      15667 integration points.
  Task     15 has      15696 integration points.
  Task     16 has      15509 integration points.
  Task     17 has      15687 integration points.
  Task     18 has      15651 integration points.
  Task     19 has      15655 integration points.
  Task     20 has      15469 integration points.
  Task     21 has      15658 integration points.
  Task     22 has      15700 integration points.
  Task     23 has      15515 integration points.
  Task     24 has      15674 integration points.
  Task     25 has      15604 integration points.
  Task     26 has      15637 integration points.
  Task     27 has      15518 integration points.
  Task     28 has      15741 integration points.
  Task     29 has      15662 integration points.
  Task     30 has      15572 integration points.
  Task     31 has      15666 integration points.
  Task     32 has      15559 integration points.
  Task     33 has      15655 integration points.
  Task     34 has      15558 integration points.
  Task     35 has      15640 integration points.
  Task     36 has      15704 integration points.
  Task     37 has      15559 integration points.
  Task     38 has      15722 integration points.
  Task     39 has      15562 integration points.
  Task     40 has      15680 integration points.
  Task     41 has      15418 integration points.
  Task     42 has      15695 integration points.
  Task     43 has      15706 integration points.
  Task     44 has      15594 integration points.
  Task     45 has      15693 integration points.
  Task     46 has      15588 integration points.
  Task     47 has      15639 integration points.
  Task     48 has      15489 integration points.
  Task     49 has      15627 integration points.
  Task     50 has      15701 integration points.
  Task     51 has      15531 integration points.
  Task     52 has      15652 integration points.
  Task     53 has      15573 integration points.
  Task     54 has      15666 integration points.
  Task     55 has      15457 integration points.
  Initializing partition tables, free-atom densities, potentials, etc. across the integration grid (initialize_grid_storage).
  | initialize_grid_storage: Actual outermost partition radius vs. multipole_radius_free
  | (-- VB: in principle, multipole_radius_free should be larger, hence this output)
  | Species        1: Confinement radius =              6.000000000000000 AA, multipole_radius_free =              6.071692442739658 AA.
  | Species        1: outer_partition_radius set to              6.071692442739658 AA .
  | Species        2: Confinement radius =              6.000000000000000 AA, multipole_radius_free =              6.029870734432609 AA.
  | Species        2: outer_partition_radius set to              6.029870734432609 AA .
  | The sparse table of interatomic distances needs     32.0360 kbyte instead of    21.6320 kbyte of memory.
  | Using the partition_type stratmann_smoother will reduce your memory usage.
  | Net number of integration points:   874752
  | of which are non-zero points    :   694688
  Renormalizing the initial density to the exact electron count on the 3D integration grid.
  | Initial density: Formal number of electrons (from input files) :     222.0000000000
  | Integrated number of electrons on 3D grid     :     222.0003543423
  | Charge integration error                      :       0.0003543423
  | Normalization factor for density and gradient :       0.9999984039
  Obtaining max. number of non-zero basis functions in each batch (get_n_compute_maxes).
  | Maximal number of non-zero basis functions:     1050
  Selecting the method for density update.
  Loop over occupied states selected for charge density update.
  Hamiltonian matrix size:
  | Size of matrix non-packed:               1274406
  | Size of matrix packed:         1121731
  Allocating        3.064 MB for KS_eigenvector
  use_local_index: Max. local matrix size =       899458
  Task:     0 matrix size:     293556
  Task:     1 matrix size:     171320
  Task:     2 matrix size:     368406
  Task:     3 matrix size:     429723
  Task:     4 matrix size:     687419
  Task:     5 matrix size:     899458
  Task:     6 matrix size:     895260
  Task:     7 matrix size:     213404
  Task:     8 matrix size:     301891
  Task:     9 matrix size:     231518
  Task:    10 matrix size:     436602
  Task:    11 matrix size:     612680
  Task:    12 matrix size:     806655
  Task:    13 matrix size:     792244
  Task:    14 matrix size:     491532
  Task:    15 matrix size:     241355
  Task:    16 matrix size:     284295
  Task:    17 matrix size:     624005
  Task:    18 matrix size:     652456
  Task:    19 matrix size:     228826
  Task:    20 matrix size:     135981
  Task:    21 matrix size:     233586
  Task:    22 matrix size:     237931
  Task:    23 matrix size:     201015
  Task:    24 matrix size:     671235
  Task:    25 matrix size:     665066
  Task:    26 matrix size:     461005
  Task:    27 matrix size:     299859
  Task:    28 matrix size:     156520
  Task:    29 matrix size:     637515
  Task:    30 matrix size:     642180
  Task:    31 matrix size:     228107
  Task:    32 matrix size:     213340
  Task:    33 matrix size:     540652
  Task:    34 matrix size:     347614
  Task:    35 matrix size:     342545
  Task:    36 matrix size:     723405
  Task:    37 matrix size:     698724
  Task:    38 matrix size:     317859
  Task:    39 matrix size:     174770
  Task:    40 matrix size:     389157
  Task:    41 matrix size:     139128
  Task:    42 matrix size:     870526
  Task:    43 matrix size:     456099
  Task:    44 matrix size:     234629
  Task:    45 matrix size:     711556
  Task:    46 matrix size:     374493
  Task:    47 matrix size:     500898
  Task:    48 matrix size:     353891
  Task:    49 matrix size:     811714
  Task:    50 matrix size:     716211
  Task:    51 matrix size:     463509
  Task:    52 matrix size:     427197
  Task:    53 matrix size:     165597
  Task:    54 matrix size:     386014
  Task:    55 matrix size:     189868
  Integrating Hamiltonian matrix: batch-based integration.
  Time summed over all CPUs for integration: real work      165.671 s, elapsed      306.813 s
  Time get_set_sparse_local_matrix_scalapack:     0.016728 s
  Start compute_balanced_batch_distribution
  Done load balancing, time needed:      0.008 s
  Integrating overlap matrix with loadbalancing
  Time summed over all CPUs for integration: real work       46.604 s, elapsed       54.057 s
  Time get_set_full_local_matrix_scalapack:     0.019007 s

  Updating Kohn-Sham eigenvalues and eigenvectors using ELSI and the ELPA eigensolver.
  Overlap matrix is not singular
  | Lowest and highest eigenvalues :  0.12E+02,  0.86E-04
  Finished singularity check of overlap matrix
  | Time :     0.104 s
  Finished Cholesky decomposition
  | Time :     0.022 s
  Finished transformation to standard eigenproblem
  | Time :     0.017 s
  Starting ELPA eigensolver
  Finished solving standard eigenproblem
  | Time :     0.105 s
  Finished back-transformation of eigenvectors
  | Time :     0.004 s

  Obtaining occupation numbers and chemical potential using ELSI.
  | Chemical potential (Fermi level):    -7.96526970 eV
  Writing Kohn-Sham eigenvalues.

  State    Occupation    Eigenvalue [Ha]    Eigenvalue [eV]
      1       2.00000         -10.179115         -276.98781
      2       2.00000         -10.178075         -276.95951
      3       2.00000         -10.177877         -276.95414
      4       2.00000         -10.177418         -276.94165
      5       2.00000         -10.175359         -276.88560
      6       2.00000         -10.174591         -276.86472
      7       2.00000         -10.174550         -276.86359
      8       2.00000         -10.173681         -276.83994
      9       2.00000         -10.172575         -276.80985
     10       2.00000         -10.172095         -276.79679
     11       2.00000         -10.171241         -276.77355
     12       2.00000         -10.170869         -276.76344
     13       2.00000         -10.170534         -276.75430
     14       2.00000         -10.170486         -276.75301
     15       2.00000         -10.170373         -276.74993
     16       2.00000         -10.169623         -276.72953
     17       2.00000         -10.168949         -276.71118
     18       2.00000         -10.168210         -276.69108
     19       2.00000         -10.167894         -276.68247
     20       2.00000         -10.167026         -276.65887
     21       2.00000         -10.164852         -276.59969
     22       2.00000         -10.164288         -276.58435
     23       2.00000         -10.164257         -276.58352
     24       2.00000         -10.164116         -276.57968
     25       2.00000         -10.164080         -276.57868
     26       2.00000         -10.163781         -276.57055
     27       2.00000         -10.163492         -276.56268
     28       2.00000         -10.163428         -276.56096
     29       2.00000         -10.162889         -276.54628
     30       2.00000         -10.162657         -276.53996
     31       2.00000         -10.162611         -276.53873
     32       2.00000         -10.162406         -276.53314
     33       2.00000         -10.162284         -276.52983
     34       2.00000         -10.159916         -276.46537
     35       2.00000          -1.025680          -27.91016
     36       2.00000          -1.014201          -27.59781
     37       2.00000          -0.997818          -27.15202
     38       2.00000          -0.994586          -27.06406
     39       2.00000          -0.984898          -26.80044
     40       2.00000          -0.956774          -26.03515
     41       2.00000          -0.941185          -25.61095
     42       2.00000          -0.940582          -25.59454
     43       2.00000          -0.913380          -24.85434
     44       2.00000          -0.912646          -24.83435
     45       2.00000          -0.892347          -24.28199
     46       2.00000          -0.880626          -23.96305
     47       2.00000          -0.878460          -23.90410
     48       2.00000          -0.876190          -23.84235
     49       2.00000          -0.865523          -23.55209
     50       2.00000          -0.858312          -23.35587
     51       2.00000          -0.839961          -22.85650
     52       2.00000          -0.786707          -21.40738
     53       2.00000          -0.781556          -21.26721
     54       2.00000          -0.780947          -21.25065
     55       2.00000          -0.776658          -21.13393
     56       2.00000          -0.774572          -21.07719
     57       2.00000          -0.756022          -20.57242
     58       2.00000          -0.740570          -20.15193
     59       2.00000          -0.731376          -19.90177
     60       2.00000          -0.730138          -19.86806
     61       2.00000          -0.698614          -19.01026
     62       2.00000          -0.687617          -18.71100
     63       2.00000          -0.686108          -18.66994
     64       2.00000          -0.677747          -18.44243
     65       2.00000          -0.664112          -18.07142
     66       2.00000          -0.660849          -17.98262
     67       2.00000          -0.648501          -17.64660
     68       2.00000          -0.637315          -17.34223
     69       2.00000          -0.632321          -17.20634
     70       2.00000          -0.625313          -17.01564
     71       2.00000          -0.622953          -16.95143
     72       2.00000          -0.608706          -16.56373
     73       2.00000          -0.606193          -16.49535
     74       2.00000          -0.604769          -16.45659
     75       2.00000          -0.594547          -16.17844
     76       2.00000          -0.592794          -16.13074
     77       2.00000          -0.583974          -15.89074
     78       2.00000          -0.578314          -15.73673
     79       2.00000          -0.576946          -15.69951
     80       2.00000          -0.570553          -15.52555
     81       2.00000          -0.570101          -15.51324
     82       2.00000          -0.564545          -15.36204
     83       2.00000          -0.559358          -15.22092
     84       2.00000          -0.547086          -14.88695
     85       2.00000          -0.537668          -14.63069
     86       2.00000          -0.534303          -14.53912
     87       2.00000          -0.530372          -14.43215
     88       2.00000          -0.527610          -14.35699
     89       2.00000          -0.521881          -14.20111
     90       2.00000          -0.519513          -14.13667
     91       2.00000          -0.515317          -14.02249
     92       2.00000          -0.510978          -13.90442
     93       2.00000          -0.505928          -13.76699
     94       2.00000          -0.502489          -13.67343
     95       2.00000          -0.496319          -13.50552
     96       2.00000          -0.495658          -13.48755
     97       2.00000          -0.494919          -13.46744
     98       2.00000          -0.484669          -13.18852
     99       2.00000          -0.476565          -12.96800
    100       2.00000          -0.466293          -12.68848
    101       2.00000          -0.449902          -12.24247
    102       2.00000          -0.449231          -12.22421
    103       2.00000          -0.428521          -11.66065
    104       2.00000          -0.422094          -11.48576
    105       2.00000          -0.404686          -11.01206
    106       2.00000          -0.398859          -10.85350
    107       2.00000          -0.396388          -10.78627
    108       2.00000          -0.394359          -10.73106
    109       2.00000          -0.373987          -10.17669
    110       2.00000          -0.368065          -10.01555
    111       2.00000          -0.342397           -9.31711
    112       0.00000          -0.269191           -7.32506
    113       0.00000          -0.244253           -6.64646
    114       0.00000          -0.240621           -6.54763
    115       0.00000          -0.222821           -6.06327
    116       0.00000          -0.214160           -5.82760
    117       0.00000          -0.211052           -5.74301
    118       0.00000          -0.205701           -5.59742
    119       0.00000          -0.187641           -5.10597
    120       0.00000          -0.173527           -4.72192
    121       0.00000          -0.150709           -4.10099
    122       0.00000          -0.147140           -4.00388
    123       0.00000          -0.125874           -3.42522
    124       0.00000          -0.084833           -2.30842
    125       0.00000          -0.074446           -2.02578
    126       0.00000          -0.071465           -1.94466
    127       0.00000          -0.069093           -1.88013
    128       0.00000          -0.065149           -1.77280
    129       0.00000          -0.061382           -1.67029
    130       0.00000          -0.058989           -1.60518
    131       0.00000          -0.053764           -1.46300
    132       0.00000          -0.046113           -1.25481
    133       0.00000          -0.037406           -1.01788
    134       0.00000          -0.035307           -0.96075
    135       0.00000          -0.032687           -0.88945
    136       0.00000          -0.020744           -0.56448
    137       0.00000          -0.019700           -0.53605
    138       0.00000          -0.018871           -0.51350
    139       0.00000          -0.014850           -0.40408
    140       0.00000          -0.014067           -0.38279
    141       0.00000          -0.010552           -0.28715
    142       0.00000          -0.008558           -0.23288
    143       0.00000          -0.004288           -0.11669
    144       0.00000          -0.000111           -0.00302
    145       0.00000           0.004491            0.12221
    146       0.00000           0.009795            0.26653
    147       0.00000           0.010673            0.29042
    148       0.00000           0.011971            0.32574
    149       0.00000           0.016906            0.46003
    150       0.00000           0.018845            0.51280
    151       0.00000           0.022102            0.60142
    152       0.00000           0.026890            0.73171
    153       0.00000           0.027966            0.76099
    154       0.00000           0.029225            0.79525
    155       0.00000           0.033403            0.90895
    156       0.00000           0.035636            0.96971
    157       0.00000           0.040007            1.08863
    158       0.00000           0.040845            1.11146
    159       0.00000           0.048087            1.30851
    160       0.00000           0.049763            1.35411
    161       0.00000           0.054909            1.49415
    162       0.00000           0.055985            1.52344
    163       0.00000           0.057184            1.55604
    164       0.00000           0.059774            1.62653
    165       0.00000           0.061472            1.67275
    166       0.00000           0.064242            1.74811
    167       0.00000           0.069859            1.90097
    168       0.00000           0.072004            1.95932
    169       0.00000           0.072922            1.98431
    170       0.00000           0.075614            2.05757
    171       0.00000           0.079008            2.14991
    172       0.00000           0.079825            2.17215
    173       0.00000           0.084870            2.30942
    174       0.00000           0.087572            2.38296
    175       0.00000           0.090400            2.45991
    176       0.00000           0.092591            2.51953
    177       0.00000           0.093604            2.54709
    178       0.00000           0.097166            2.64401
    179       0.00000           0.097874            2.66328
    180       0.00000           0.099678            2.71238
    181       0.00000           0.104003            2.83007
    182       0.00000           0.104504            2.84369
    183       0.00000           0.106694            2.90330
    184       0.00000           0.107366            2.92158
    185       0.00000           0.111542            3.03521
    186       0.00000           0.117307            3.19208
    187       0.00000           0.121623            3.30953
    188       0.00000           0.125398            3.41225
    189       0.00000           0.126386            3.43915
    190       0.00000           0.126796            3.45031
    191       0.00000           0.129100            3.51298
    192       0.00000           0.132825            3.61434
    193       0.00000           0.136589            3.71678
    194       0.00000           0.145512            3.95959
    195       0.00000           0.147928            4.02532
    196       0.00000           0.149385            4.06496
    197       0.00000           0.150495            4.09517
    198       0.00000           0.154913            4.21540
    199       0.00000           0.155926            4.24296
    200       0.00000           0.160374            4.36401
    201       0.00000           0.161482            4.39415
    202       0.00000           0.161781            4.40228
    203       0.00000           0.164412            4.47387
    204       0.00000           0.167485            4.55751
    205       0.00000           0.168358            4.58125
    206       0.00000           0.173007            4.70777
    207       0.00000           0.175541            4.77671
    208       0.00000           0.176533            4.80371
    209       0.00000           0.178766            4.86448
    210       0.00000           0.181727            4.94504
    211       0.00000           0.185184            5.03912
    212       0.00000           0.186726            5.08107
    213       0.00000           0.188456            5.12815
    214       0.00000           0.189439            5.15491
    215       0.00000           0.198044            5.38906
    216       0.00000           0.201925            5.49467
    217       0.00000           0.203778            5.54509
    218       0.00000           0.206838            5.62835
    219       0.00000           0.208433            5.67174
    220       0.00000           0.211746            5.76191
    221       0.00000           0.212810            5.79084
    222       0.00000           0.213937            5.82151
    223       0.00000           0.218506            5.94584
    224       0.00000           0.225308            6.13094
    225       0.00000           0.226782            6.17104
    226       0.00000           0.230026            6.25932
    227       0.00000           0.230766            6.27947
    228       0.00000           0.237259            6.45616
    229       0.00000           0.238438            6.48822
    230       0.00000           0.239855            6.52680
    231       0.00000           0.246704            6.71315
    232       0.00000           0.247623            6.73815
    233       0.00000           0.250747            6.82318
    234       0.00000           0.252872            6.88099
    235       0.00000           0.254984            6.93848
    236       0.00000           0.256281            6.97375
    237       0.00000           0.265136            7.21472
    238       0.00000           0.269831            7.34248
    239       0.00000           0.276943            7.53601
    240       0.00000           0.279222            7.59802

  Highest occupied state (VBM) at     -9.31710754 eV
  | Occupation number:      2.00000000

  Lowest unoccupied state (CBM) at    -7.32506169 eV
  | Occupation number:      0.00000000

  Overall HOMO-LUMO gap:      1.99204585 eV.
  Calculating total energy contributions from superposition of free atom densities.

  Total energy components:
  | Sum of eigenvalues            :        -791.43124806 Ha      -21535.93999626 eV
  | XC energy correction          :        -186.82672083 Ha       -5083.81373538 eV
  | XC potential correction       :         239.98425936 Ha        6530.30395536 eV
  | Free-atom electrostatic energy:        -569.25283736 Ha      -15490.15783509 eV
  | Hartree energy correction     :           0.00000000 Ha           0.00000000 eV
  | Entropy correction            :           0.00000000 Ha           0.00000000 eV
  | ---------------------------
  | Total energy                  :       -1307.52654689 Ha      -35579.60761137 eV
  | Total energy, T -> 0          :       -1307.52654689 Ha      -35579.60761137 eV  <-- do not rely on this value for anything but (periodic) metals
  | Electronic free energy        :       -1307.52654689 Ha      -35579.60761137 eV

  Derived energy quantities:
  | Kinetic energy                :        1296.26657535 Ha       35273.20819634 eV
  | Electrostatic energy          :       -2416.96640141 Ha      -65769.00207234 eV
  | Energy correction for multipole
  | error in Hartree potential    :           0.00000000 Ha           0.00000000 eV
  | Sum of eigenvalues per atom                           :        -414.15269224 eV
  | Total energy (T->0) per atom                          :        -684.22322330 eV  <-- do not rely on this value for anything but (periodic) metals
  | Electronic free energy per atom                       :        -684.22322330 eV
  Initialize hartree_potential_storage
  Max. number of atoms included in rho_multipole:           52

  End scf initialization - timings             :  max(cpu_time)    wall_clock(cpu1)
  | Time for scf. initialization               :        8.792 s           8.880 s
  | Boundary condition initialization          :        0.001 s           0.004 s
  | Integration                                :        6.505 s           6.512 s
  | Solution of K.-S. eqns.                    :        0.269 s           0.292 s
  | Grid partitioning                          :        1.030 s           1.036 s
  | Preloading free-atom quantities on grid    :        0.013 s           0.023 s
  | Free-atom superposition energy             :        0.072 s           0.073 s
  | Total energy evaluation                    :        0.001 s           0.006 s

  Partial memory accounting:
  | Current value for overall tracked memory usage on task 0  :           5.437 MB
  | Peak value for overall tracked memory usage on task 0     :          31.751 MB after allocating zora_vector2
  | Largest tracked array allocation on task 0 so far         :           8.820 MB  when allocating hamiltonian_shell
  Note:  These values currently only include a subset of arrays which are explicitly tracked.
  The "true" memory usage will be greater.
------------------------------------------------------------

------------------------------------------------------------
          Begin self-consistency iteration #    1

  Date     :  20210727, Time     :  231804.723
------------------------------------------------------------
  Evaluating new KS density.
  Integration grid: deviation in total charge (<rho> - N_e) =   8.526513E-14
  Pulay mixing of updated and previous charge densities.

  Evaluating partitioned Hartree potential by multipole expansion.
  | Analytical far-field extrapolation by fixed multipoles:
  | Hartree multipole sum: apparent total charge =   0.344518E-03
  Summing up the Hartree potential with load balancing.
  Time summed over all CPUs for potential: real work       28.990 s, elapsed       44.353 s
  | RMS charge density error from multipole expansion :   0.141331E-01

  Start compute_balanced_batch_distribution
  Done load balancing, time needed:      0.007 s
  Integrating Hamiltonian matrix: batch-based integration with load balancing
  Time summed over all CPUs for integration: real work      182.979 s, elapsed      204.569 s
  Time get_set_full_local_matrix_scalapack:     0.019109 s
  Start compute_balanced_batch_distribution
  Done load balancing, time needed:      0.008 s

  Updating Kohn-Sham eigenvalues and eigenvectors using ELSI and the ELPA eigensolver.
  Finished transformation to standard eigenproblem
  | Time :     0.019 s
  Starting ELPA eigensolver
  Finished solving standard eigenproblem
  | Time :     0.104 s
  Finished back-transformation of eigenvectors
  | Time :     0.005 s

  Obtaining occupation numbers and chemical potential using ELSI.
  | Chemical potential (Fermi level):    -5.83703418 eV
  Writing Kohn-Sham eigenvalues.

  State    Occupation    Eigenvalue [Ha]    Eigenvalue [eV]
      1       2.00000          -9.996656         -272.02284
      2       2.00000          -9.993492         -271.93675
      3       2.00000          -9.989500         -271.82813
      4       2.00000          -9.989210         -271.82024
      5       2.00000          -9.987930         -271.78541
      6       2.00000          -9.986777         -271.75404
      7       2.00000          -9.986309         -271.74128
      8       2.00000          -9.985336         -271.71483
      9       2.00000          -9.984759         -271.69912
     10       2.00000          -9.984294         -271.68646
     11       2.00000          -9.983933         -271.67664
     12       2.00000          -9.982763         -271.64479
     13       2.00000          -9.981814         -271.61898
     14       2.00000          -9.981337         -271.60600
     15       2.00000          -9.968784         -271.26440
     16       2.00000          -9.965971         -271.18787
     17       2.00000          -9.960733         -271.04533
     18       2.00000          -9.958357         -270.98068
     19       2.00000          -9.956549         -270.93149
     20       2.00000          -9.952870         -270.83139
     21       2.00000          -9.952292         -270.81564
     22       2.00000          -9.952269         -270.81503
     23       2.00000          -9.951916         -270.80542
     24       2.00000          -9.951831         -270.80310
     25       2.00000          -9.950114         -270.75638
     26       2.00000          -9.949994         -270.75312
     27       2.00000          -9.947764         -270.69244
     28       2.00000          -9.944496         -270.60349
     29       2.00000          -9.942172         -270.54027
     30       2.00000          -9.941039         -270.50942
     31       2.00000          -9.940974         -270.50766
     32       2.00000          -9.940708         -270.50042
     33       2.00000          -9.938590         -270.44279
     34       2.00000          -9.937374         -270.40970
     35       2.00000          -0.890620          -24.23501
     36       2.00000          -0.871331          -23.71013
     37       2.00000          -0.848435          -23.08708
     38       2.00000          -0.842882          -22.93597
     39       2.00000          -0.840176          -22.86236
     40       2.00000          -0.809134          -22.01767
     41       2.00000          -0.797514          -21.70146
     42       2.00000          -0.794930          -21.63114
     43       2.00000          -0.775116          -21.09197
     44       2.00000          -0.765161          -20.82108
     45       2.00000          -0.748016          -20.35456
     46       2.00000          -0.738751          -20.10244
     47       2.00000          -0.735575          -20.01601
     48       2.00000          -0.729691          -19.85589
     49       2.00000          -0.719061          -19.56665
     50       2.00000          -0.713218          -19.40765
     51       2.00000          -0.696446          -18.95126
     52       2.00000          -0.646927          -17.60378
     53       2.00000          -0.642904          -17.49431
     54       2.00000          -0.642432          -17.48147
     55       2.00000          -0.637587          -17.34961
     56       2.00000          -0.635088          -17.28162
     57       2.00000          -0.617790          -16.81091
     58       2.00000          -0.598954          -16.29837
     59       2.00000          -0.592733          -16.12907
     60       2.00000          -0.590692          -16.07356
     61       2.00000          -0.564627          -15.36429
     62       2.00000          -0.554186          -15.08018
     63       2.00000          -0.549609          -14.95562
     64       2.00000          -0.540725          -14.71388
     65       2.00000          -0.530560          -14.43727
     66       2.00000          -0.526108          -14.31613
     67       2.00000          -0.510612          -13.89446
     68       2.00000          -0.502481          -13.67320
     69       2.00000          -0.495410          -13.48080
     70       2.00000          -0.488284          -13.28688
     71       2.00000          -0.484782          -13.19159
     72       2.00000          -0.472040          -12.84486
     73       2.00000          -0.471570          -12.83206
     74       2.00000          -0.465422          -12.66478
     75       2.00000          -0.462991          -12.59861
     76       2.00000          -0.453831          -12.34937
     77       2.00000          -0.444833          -12.10453
     78       2.00000          -0.442016          -12.02786
     79       2.00000          -0.440473          -11.98588
     80       2.00000          -0.439418          -11.95717
     81       2.00000          -0.437857          -11.91471
     82       2.00000          -0.432692          -11.77415
     83       2.00000          -0.426251          -11.59888
     84       2.00000          -0.420894          -11.45310
     85       2.00000          -0.414706          -11.28471
     86       2.00000          -0.409746          -11.14977
     87       2.00000          -0.405168          -11.02519
     88       2.00000          -0.394805          -10.74320
     89       2.00000          -0.390253          -10.61932
     90       2.00000          -0.388706          -10.57723
     91       2.00000          -0.384881          -10.47314
     92       2.00000          -0.384058          -10.45076
     93       2.00000          -0.380354          -10.34997
     94       2.00000          -0.375139          -10.20804
     95       2.00000          -0.370192          -10.07344
     96       2.00000          -0.361654           -9.84110
     97       2.00000          -0.358990           -9.76861
     98       2.00000          -0.346268           -9.42243
     99       2.00000          -0.345072           -9.38990
    100       2.00000          -0.341908           -9.30380
    101       2.00000          -0.329358           -8.96228
    102       2.00000          -0.324741           -8.83666
    103       2.00000          -0.310905           -8.46016
    104       2.00000          -0.298290           -8.11689
    105       2.00000          -0.281273           -7.65382
    106       2.00000          -0.276173           -7.51504
    107       2.00000          -0.275081           -7.48534
    108       2.00000          -0.273781           -7.44996
    109       2.00000          -0.249324           -6.78445
    110       2.00000          -0.245925           -6.69195
    111       2.00000          -0.221609           -6.03030
    112       0.00000          -0.149446           -4.06663
    113       0.00000          -0.124675           -3.39259
    114       0.00000          -0.119460           -3.25069
    115       0.00000          -0.104814           -2.85214
    116       0.00000          -0.096119           -2.61553
    117       0.00000          -0.091433           -2.48802
    118       0.00000          -0.084510           -2.29964
    119       0.00000          -0.065404           -1.77975
    120       0.00000          -0.054278           -1.47699
    121       0.00000          -0.030307           -0.82469
    122       0.00000          -0.028365           -0.77186
    123       0.00000          -0.026973           -0.73399
    124       0.00000          -0.026243           -0.71412
    125       0.00000          -0.022415           -0.60994
    126       0.00000          -0.015865           -0.43170
    127       0.00000          -0.013498           -0.36731
    128       0.00000          -0.006375           -0.17346
    129       0.00000          -0.001981           -0.05389
    130       0.00000           0.000819            0.02229
    131       0.00000           0.011754            0.31985
    132       0.00000           0.014282            0.38863
    133       0.00000           0.022286            0.60643
    134       0.00000           0.027620            0.75158
    135       0.00000           0.028018            0.76241
    136       0.00000           0.035943            0.97806
    137       0.00000           0.037247            1.01354
    138       0.00000           0.040609            1.10502
    139       0.00000           0.050500            1.37418
    140       0.00000           0.052429            1.42666
    141       0.00000           0.058283            1.58595
    142       0.00000           0.060086            1.63501
    143       0.00000           0.064845            1.76452
    144       0.00000           0.066806            1.81789
    145       0.00000           0.072035            1.96016
    146       0.00000           0.078077            2.12458
    147       0.00000           0.080667            2.19507
    148       0.00000           0.086297            2.34825
    149       0.00000           0.095113            2.58816
    150       0.00000           0.097911            2.66429
    151       0.00000           0.098127            2.67016
    152       0.00000           0.101432            2.76011
    153       0.00000           0.103027            2.80349
    154       0.00000           0.107593            2.92774
    155       0.00000           0.108391            2.94946
    156       0.00000           0.111010            3.02074
    157       0.00000           0.112956            3.07368
    158       0.00000           0.117623            3.20069
    159       0.00000           0.120595            3.28155
    160       0.00000           0.121725            3.31230
    161       0.00000           0.125761            3.42213
    162       0.00000           0.127369            3.46588
    163       0.00000           0.133388            3.62967
    164       0.00000           0.135670            3.69176
    165       0.00000           0.138447            3.76734
    166       0.00000           0.142256            3.87097
    167       0.00000           0.143201            3.89671
    168       0.00000           0.143854            3.91447
    169       0.00000           0.148226            4.03343
    170       0.00000           0.148668            4.04546
    171       0.00000           0.150711            4.10107
    172       0.00000           0.151501            4.12255
    173       0.00000           0.155702            4.23687
    174       0.00000           0.158519            4.31351
    175       0.00000           0.159562            4.34192
    176       0.00000           0.161734            4.40099
    177       0.00000           0.164353            4.47227
    178       0.00000           0.165167            4.49442
    179       0.00000           0.165739            4.50999
    180       0.00000           0.174430            4.74647
    181       0.00000           0.176701            4.80827
    182       0.00000           0.181092            4.92775
    183       0.00000           0.182986            4.97931
    184       0.00000           0.184200            5.01235
    185       0.00000           0.187745            5.10880
    186       0.00000           0.191665            5.21546
    187       0.00000           0.194708            5.29826
    188       0.00000           0.196407            5.34452
    189       0.00000           0.197194            5.36592
    190       0.00000           0.201002            5.46954
    191       0.00000           0.201978            5.49611
    192       0.00000           0.205507            5.59213
    193       0.00000           0.208060            5.66159
    194       0.00000           0.212594            5.78497
    195       0.00000           0.213583            5.81188
    196       0.00000           0.217316            5.91347
    197       0.00000           0.219945            5.98502
    198       0.00000           0.221919            6.03871
    199       0.00000           0.223026            6.06886
[...]
     70       2.00000          -0.425818          -11.58708
     71       2.00000          -0.422970          -11.50959
     72       2.00000          -0.409472          -11.14229
     73       2.00000          -0.408393          -11.11295
     74       2.00000          -0.403727          -10.98598
     75       2.00000          -0.400844          -10.90751
     76       2.00000          -0.391884          -10.66370
     77       2.00000          -0.390705          -10.63163
     78       2.00000          -0.382381          -10.40511
     79       2.00000          -0.380953          -10.36627
     80       2.00000          -0.377392          -10.26935
     81       2.00000          -0.376787          -10.25288
     82       2.00000          -0.371892          -10.11970
     83       2.00000          -0.369914          -10.06588
     84       2.00000          -0.361701           -9.84239
     85       2.00000          -0.358064           -9.74341
     86       2.00000          -0.350872           -9.54771
     87       2.00000          -0.343852           -9.35670
     88       2.00000          -0.342097           -9.30895
     89       2.00000          -0.340405           -9.26290
     90       2.00000          -0.331727           -9.02674
     91       2.00000          -0.328763           -8.94609
     92       2.00000          -0.327724           -8.91784
     93       2.00000          -0.325009           -8.84393
     94       2.00000          -0.318858           -8.67656
     95       2.00000          -0.308201           -8.38657
     96       2.00000          -0.302173           -8.22253
     97       2.00000          -0.298563           -8.12431
     98       2.00000          -0.294808           -8.02213
     99       2.00000          -0.289942           -7.88974
    100       2.00000          -0.284983           -7.75478
    101       2.00000          -0.279176           -7.59676
    102       2.00000          -0.270915           -7.37198
    103       2.00000          -0.266098           -7.24089
    104       2.00000          -0.256037           -6.96711
    105       2.00000          -0.237962           -6.47527
    106       2.00000          -0.231922           -6.31093
    107       2.00000          -0.231132           -6.28943
    108       2.00000          -0.229604           -6.24785
    109       2.00000          -0.206110           -5.60854
    110       2.00000          -0.201194           -5.47476
    111       2.00000          -0.175574           -4.77762
    112       0.00000          -0.102920           -2.80059
    113       0.00000          -0.079365           -2.15962
    114       0.00000          -0.075888           -2.06502
    115       0.00000          -0.061125           -1.66331
    116       0.00000          -0.050686           -1.37923
    117       0.00000          -0.045681           -1.24305
    118       0.00000          -0.040051           -1.08984
    119       0.00000          -0.021483           -0.58458
    120       0.00000          -0.009080           -0.24709
    121       0.00000          -0.007214           -0.19631
    122       0.00000          -0.003724           -0.10132
    123       0.00000          -0.001188           -0.03233
    124       0.00000           0.006122            0.16657
    125       0.00000           0.008349            0.22719
    126       0.00000           0.016226            0.44153
    127       0.00000           0.017269            0.46991
    128       0.00000           0.020200            0.54968
    129       0.00000           0.022569            0.61413
    130       0.00000           0.031180            0.84846
    131       0.00000           0.035325            0.96124
    132       0.00000           0.039715            1.08071
    133       0.00000           0.045709            1.24379
    134       0.00000           0.049031            1.33421
    135       0.00000           0.049661            1.35135
    136       0.00000           0.059327            1.61437
    137       0.00000           0.060337            1.64185
    138       0.00000           0.074383            2.02407
    139       0.00000           0.078336            2.13163
    140       0.00000           0.083524            2.27281
    141       0.00000           0.084341            2.29502
    142       0.00000           0.088847            2.41765
    143       0.00000           0.095557            2.60023
    144       0.00000           0.097851            2.66267
    145       0.00000           0.103198            2.80817
    146       0.00000           0.104144            2.83391
    147       0.00000           0.106084            2.88669
    148       0.00000           0.114726            3.12185
    149       0.00000           0.117336            3.19287
    150       0.00000           0.122064            3.32154
    151       0.00000           0.125351            3.41096
    152       0.00000           0.129076            3.51232
    153       0.00000           0.136355            3.71042
    154       0.00000           0.137507            3.74175
    155       0.00000           0.140159            3.81393
    156       0.00000           0.143948            3.91703
    157       0.00000           0.147318            4.00874
    158       0.00000           0.149050            4.05586
    159       0.00000           0.150301            4.08989
    160       0.00000           0.158742            4.31959
    161       0.00000           0.159168            4.33119
    162       0.00000           0.160708            4.37308
    163       0.00000           0.168999            4.59870
    164       0.00000           0.171253            4.66002
    165       0.00000           0.172760            4.70104
    166       0.00000           0.174912            4.75960
    167       0.00000           0.175573            4.77760
    168       0.00000           0.177482            4.82953
    169       0.00000           0.179794            4.89245
    170       0.00000           0.182961            4.97863
    171       0.00000           0.183659            4.99762
    172       0.00000           0.187790            5.11003
    173       0.00000           0.188880            5.13969
    174       0.00000           0.193372            5.26191
    175       0.00000           0.194113            5.28208
    176       0.00000           0.197646            5.37822
    177       0.00000           0.198344            5.39722
    178       0.00000           0.201257            5.47648
    179       0.00000           0.202184            5.50171
    180       0.00000           0.208867            5.68357
    181       0.00000           0.210865            5.73794
    182       0.00000           0.212027            5.76955
    183       0.00000           0.219988            5.98618
    184       0.00000           0.221849            6.03683
    185       0.00000           0.223673            6.08644
    186       0.00000           0.226068            6.15162
    187       0.00000           0.227569            6.19247
    188       0.00000           0.230377            6.26888
    189       0.00000           0.232257            6.32004
    190       0.00000           0.234290            6.37534
    191       0.00000           0.238581            6.49211
    192       0.00000           0.239378            6.51382
    193       0.00000           0.240025            6.53141
    194       0.00000           0.245799            6.68853
    195       0.00000           0.248496            6.76193
    196       0.00000           0.249674            6.79397
    197       0.00000           0.251322            6.83881
    198       0.00000           0.253605            6.90094
    199       0.00000           0.257190            6.99850
    200       0.00000           0.261105            7.10503
    201       0.00000           0.265246            7.21772
    202       0.00000           0.266738            7.25832
    203       0.00000           0.270697            7.36605
    204       0.00000           0.272589            7.41753
    205       0.00000           0.273134            7.43236
    206       0.00000           0.273445            7.44082
    207       0.00000           0.277759            7.55820
    208       0.00000           0.279019            7.59248
    209       0.00000           0.281860            7.66980
    210       0.00000           0.291359            7.92828
    211       0.00000           0.294120            8.00341
    212       0.00000           0.294944            8.02583
    213       0.00000           0.295912            8.05219
    214       0.00000           0.297197            8.08715
    215       0.00000           0.301202            8.19611
    216       0.00000           0.304162            8.27667
    217       0.00000           0.310114            8.43863
    218       0.00000           0.317158            8.63031
    219       0.00000           0.319759            8.70107
    220       0.00000           0.321303            8.74310
    221       0.00000           0.324024            8.81715
    222       0.00000           0.326687            8.88961
    223       0.00000           0.329884            8.97659
    224       0.00000           0.334145            9.09256
    225       0.00000           0.336255            9.14997
    226       0.00000           0.337969            9.19659
    227       0.00000           0.339262            9.23180
    228       0.00000           0.345489            9.40125
    229       0.00000           0.352647            9.59602
    230       0.00000           0.358617            9.75846
    231       0.00000           0.359584            9.78478
    232       0.00000           0.360478            9.80909
    233       0.00000           0.363709            9.89702
    234       0.00000           0.365181            9.93708
    235       0.00000           0.374509           10.19091
    236       0.00000           0.375555           10.21936
    237       0.00000           0.378078           10.28804
    238       0.00000           0.381358           10.37727
    239       0.00000           0.381549           10.38247
    240       0.00000           0.387370           10.54087

  Highest occupied state (VBM) at     -4.77761851 eV
  | Occupation number:      2.00000000

  Lowest unoccupied state (CBM) at    -2.80059124 eV
  | Occupation number:      0.00000000

  Overall HOMO-LUMO gap:      1.97702728 eV.

  Total energy components:
  | Sum of eigenvalues            :        -743.82890931 Ha      -20240.61445336 eV
  | XC energy correction          :        -190.12943735 Ha       -5173.68522451 eV
  | XC potential correction       :         244.25249948 Ha        6646.44867843 eV
  | Free-atom electrostatic energy:        -569.25283736 Ha      -15490.15783509 eV
  | Hartree energy correction     :         -47.03131346 Ha       -1279.78715407 eV
  | Entropy correction            :           0.00000000 Ha           0.00000000 eV
  | ---------------------------
  | Total energy                  :       -1305.98999800 Ha      -35537.79598860 eV
  | Total energy, T -> 0          :       -1305.98999800 Ha      -35537.79598860 eV  <-- do not rely on this value for anything but (periodic) metals
  | Electronic free energy        :       -1305.98999800 Ha      -35537.79598860 eV

  Derived energy quantities:
  | Kinetic energy                :        1302.67911905 Ha       35447.70238864 eV
  | Electrostatic energy          :       -2418.53967970 Ha      -65811.81315273 eV
  | Energy correction for multipole
  | error in Hartree potential    :          -0.16344437 Ha          -4.44754757 eV
  | Sum of eigenvalues per atom                           :        -389.24258564 eV
  | Total energy (T->0) per atom                          :        -683.41915363 eV  <-- do not rely on this value for anything but (periodic) metals
  | Electronic free energy per atom                       :        -683.41915363 eV
  End evaluation of scaled ZORA corrections.
  | Time for scaled ZORA corrections           :        6.213 s           6.225 s
------------------------------------------------------------

  Energy and forces in a compact form:
  | Total energy uncorrected      :         -0.355377959886028E+05 eV
  | Total energy corrected        :         -0.355377959886028E+05 eV  <-- do not rely on this value for anything but (periodic) metals
  | Electronic free energy        :         -0.355377959886028E+05 eV

  ------------------------------------ 
  Start decomposition of the XC Energy 
  ------------------------------------ 
  X and C from original XC functional choice 
  Hartree-Fock Energy :          0.000000000 Ha              0.000000000 eV
  X Energy            :       -182.641835346 Ha          -4969.937207378 eV
  C Energy            :         -7.487602005 Ha           -203.748017136 eV
  Total XC Energy     :       -190.129437351 Ha          -5173.685224513 eV
  ------------------------------------ 
  LDA X and C from self-consistent density 
  X Energy LDA        :       -165.466208028 Ha          -4502.564608396 eV
  C Energy LDA        :        -14.384228201 Ha           -391.414764303 eV
  ------------------------------------ 
  End decomposition of the XC Energy 
  ------------------------------------ 

------------------------------------------------------------

------------------------------------------------------------------------------
  Final output of selected total energy values:

  The following output summarizes some interesting total energy values
  at the end of a run (AFTER all relaxation, molecular dynamics, etc.).

  | Total energy of the DFT / Hartree-Fock s.c.f. calculation      :         -35537.795988603 eV
  | Final zero-broadening corrected energy (caution - metals only) :         -35537.795988603 eV
  | For reference only, the value of 1 Hartree used in FHI-aims is :             27.211384500 eV

  Before relying on these values, please be sure to understand exactly which
  total energy value is referred to by a given number. Different objects may
  all carry the same name 'total energy'. Definitions:

  Total energy of the DFT / Hartree-Fock s.c.f. calculation:
  | Note that this energy does not include ANY quantities calculated after the
  | s.c.f. cycle, in particular not ANY RPA, MP2, etc. many-body perturbation terms.
  | Scalar relativistic effects have been included in the 'scaled ZORA' approximation.

  Final zero-broadening corrected energy:
  | For metallic systems only, a broadening of the occupation numbers at the Fermi
  | level can be extrapolated back to zero broadening by an electron-gas inspired
  | formula. For all systems that are not real metals, this value can be
  | meaningless and should be avoided.

------------------------------------------------------------------------------
  Methods described in the following list of references were used in this FHI-aims run.
  If you publish the results, please make sure to cite these reference if they apply.
  FHI-aims is an academic code, and for our developers (often, Ph.D. students
  and postdocs), scientific credit in the community is essential.
  Thank you for helping us!

  For any use of FHI-aims, please cite:

    Volker Blum, Ralf Gehrke, Felix Hanke, Paula Havu, Ville Havu,
    Xinguo Ren, Karsten Reuter, and Matthias Scheffler
    'Ab initio molecular simulations with numeric atom-centered orbitals'
    Computer Physics Communications 180, 2175-2196 (2009)
    http://dx.doi.org/10.1016/j.cpc.2009.06.022


  The scalable eigensolver library ELPA was used in your run.
  ELPA is essential especially for large systems on hundreds or thousands of CPUs.
  For ELPA, please cite:

    Andreas Marek, Volker Blum, Rainer Johanni, Ville Havu, Bruno Lang,
    Thomas Auckenthaler, Alexander Heinecke, Hans-Joachim Bungartz, and Hermann Lederer,
    'The ELPA Library - Scalable Parallel Eigenvalue Solutions
    for Electronic Structure Theory and Computational Science'
    The Journal of Physics: Condensed Matter 26, 213201 (2014).
    http://dx.doi.org/10.1088/0953-8984/26/21/213201


  The ELSI infrastructure was used in your run to solve the Kohn-Sham electronic structure.
  Please check out http://elsi-interchange.org to learn more.
  If scalability is important for your project, please acknowledge ELSI by citing:

    V. W-z. Yu, F. Corsetti, A. Garcia, W. P. Huhn, M. Jacquelin, W. Jia,
    B. Lange, L. Lin, J. Lu, W. Mi, A. Seifitokaldani, A. Vazquez-Mayagoitia,
    C. Yang, H. Yang, and V. Blum
    'ELSI: A unified software interface for Kohn-Sham electronic structure solvers'
    Computer Physics Communications 222, 267-285 (2018).
    http://dx.doi.org/10.1016/j.cpc.2017.09.007


  For the real-space grid partitioning and parallelization used in this calculation, please cite:

    Ville Havu, Volker Blum, Paula Havu, and Matthias Scheffler,
    'Efficient O(N) integration for all-electron electronic structure calculation'
    'using numerically tabulated basis functions'
    Journal of Computational Physics 228, 8367-8379 (2009).
    http://dx.doi.org/10.1016/j.jcp.2009.08.008

  Of course, there are many other important community references, e.g., those cited in the
  above references. Our list is limited to references that describe implementations in the
  FHI-aims code. The reason is purely practical (length of this list) - please credit others as well.

------------------------------------------------------------
          Leaving FHI-aims.
          Date     :  20210727, Time     :  231959.260

          Computational steps:
          | Number of self-consistency cycles          :           19
          | Number of SCF (re)initializations          :            1

          Detailed time accounting                     :  max(cpu_time)    wall_clock(cpu1)
          | Total time                                 :      123.596 s         123.868 s
          | Preparation time                           :        0.197 s           0.199 s
          | Boundary condition initalization           :        0.001 s           0.004 s
          | Grid partitioning                          :        1.030 s           1.036 s
          | Preloading free-atom quantities on grid    :        0.013 s           0.023 s
          | Free-atom superposition energy             :        0.072 s           0.073 s
          | Total time for integrations                :       71.717 s          71.731 s
          | Total time for solution of K.-S. equations :        3.626 s           3.654 s
          | Total time for density update              :       27.927 s          27.880 s
          | Total time for mixing                      :        0.163 s           0.167 s
          | Total time for Hartree multipole update    :        0.180 s           0.187 s
          | Total time for Hartree multipole sum       :       11.252 s          11.255 s
          | Total time for total energy evaluation     :        0.013 s           0.040 s
          | Total time for scaled ZORA corrections     :        6.213 s           6.225 s

          Partial memory accounting:
          | Residual value for overall tracked memory usage across tasks :     0.000000 MB (should be 0.000000 MB)
          | Peak values for overall tracked memory usage (after allocating zora_vector2):
          |   Minimum:       30.349 MB (on task 21)
          |   Maximum:       38.942 MB (on task  6)
          |   Average:       34.017 MB
          | Largest tracked array allocation (hamiltonian_shell):
          |   Minimum:        8.820 MB (on task  1)
          |   Maximum:        8.820 MB (on task  1)
          |   Average:        8.820 MB
          Note:  These values currently only include a subset of arrays which are explicitly tracked.
          The "true" memory usage will be greater.

          Have a nice day.
------------------------------------------------------------
