  MPI-parallelism will be employed.
------------------------------------------------------------
          Invoking FHI-aims ...
          Version 180607
          Git rev. (modified): 6724847 Fix JSON memory corruption in scf_solver
          Compiled on 2018/06/27 at 16:00:31 on host coe.psc.edu.

          When using FHI-aims, please cite the following reference:

          Volker Blum, Ralf Gehrke, Felix Hanke, Paula Havu,
          Ville Havu, Xinguo Ren, Karsten Reuter, and Matthias Scheffler,
          'Ab Initio Molecular Simulations with Numeric Atom-Centered Orbitals',
          Computer Physics Communications 180, 2175-2196 (2009)

          For any questions about FHI-aims, please visit the aimsclub website
          with its forums and wiki. Contributions to both the forums and the
          wiki are warmly encouraged - they are for you, and everyone is welcome there.

------------------------------------------------------------



  Date     :  20210620, Time     :  164758.504
  Time zero on CPU 1             :   0.243497000000000E+00  s.
  Internal wall clock time zero  :           393439678.504  s.

  FHI-aims created a unique identifier for this run for later identification
  aims_uuid : A92E6FAC-285E-485C-ABC3-D27E13DC0FB4

  Using       56 parallel tasks.
  Task        0 on host d021 reporting.
  Task        1 on host d021 reporting.
  Task        2 on host d021 reporting.
  Task        3 on host d021 reporting.
  Task        4 on host d021 reporting.
  Task        5 on host d021 reporting.
  Task        6 on host d021 reporting.
  Task        7 on host d021 reporting.
  Task        8 on host d021 reporting.
  Task        9 on host d021 reporting.
  Task       10 on host d021 reporting.
  Task       11 on host d021 reporting.
  Task       12 on host d021 reporting.
  Task       13 on host d021 reporting.
  Task       14 on host d021 reporting.
  Task       15 on host d021 reporting.
  Task       16 on host d021 reporting.
  Task       17 on host d021 reporting.
  Task       18 on host d021 reporting.
  Task       19 on host d021 reporting.
  Task       20 on host d021 reporting.
  Task       21 on host d021 reporting.
  Task       22 on host d021 reporting.
  Task       23 on host d021 reporting.
  Task       24 on host d021 reporting.
  Task       25 on host d021 reporting.
  Task       26 on host d021 reporting.
  Task       27 on host d021 reporting.
  Task       28 on host d021 reporting.
  Task       29 on host d021 reporting.
  Task       30 on host d021 reporting.
  Task       31 on host d021 reporting.
  Task       32 on host d021 reporting.
  Task       33 on host d021 reporting.
  Task       34 on host d021 reporting.
  Task       35 on host d021 reporting.
  Task       36 on host d021 reporting.
  Task       37 on host d021 reporting.
  Task       38 on host d021 reporting.
  Task       39 on host d021 reporting.
  Task       40 on host d021 reporting.
  Task       41 on host d021 reporting.
  Task       42 on host d021 reporting.
  Task       43 on host d021 reporting.
  Task       44 on host d021 reporting.
  Task       45 on host d021 reporting.
  Task       46 on host d021 reporting.
  Task       47 on host d021 reporting.
  Task       48 on host d021 reporting.
  Task       49 on host d021 reporting.
  Task       50 on host d021 reporting.
  Task       51 on host d021 reporting.
  Task       52 on host d021 reporting.
  Task       53 on host d021 reporting.
  Task       54 on host d021 reporting.
  Task       55 on host d021 reporting.

  Performing system and environment tests:
  *** Environment variable OMP_NUM_THREADS is not set
  *** For performance reasons you might want to set it to 1
  | Stacksize not measured: no C compiler
  | Checking for scalapack...
  | Testing pdtran()...
  | All pdtran() tests passed.

  Obtaining array dimensions for all initial allocations:
  
  -----------------------------------------------------------------------
  Parsing control.in (first pass over file, find array dimensions only).
  The contents of control.in will be repeated verbatim below
  unless switched off by setting 'verbatim_writeout .false.' .
  in the first line of control.in .
  -----------------------------------------------------------------------
  
  #===============================================================================
  # FHI-aims file: ./Runs/es/control.in
  # Created using the Atomic Simulation Environment (ASE)
  # Mon Jan 13 16:04:38 2020
  #===============================================================================
  xc                                 pbe
  relativistic                       zora scalar 1e-12
  occupation_type                    gaussian 0.0001
  load_balancing                     .true.
  KS_method                          scalapack_fast
  mixer                              pulay
  n_max_pulay                        5
  charge_mix_param                   0.4
  sc_accuracy_etot                   1e-6
  sc_accuracy_eev                    1e-4
  sc_accuracy_rho                    1e-6
  sc_iter_limit                      100
  prodbas_threshold                  1e-4
  basis_threshold                    1e-5
  override_illconditioning           .true.
  use_logsbt                         .true.
  spin                               none
  charge                             0
  #===============================================================================
  
  ################################################################################
  #
  #  FHI-aims code project
  # Volker Blum, Fritz Haber Institute Berlin, 2009
  #
  #  Suggested "tight" defaults for H atom (to be pasted into control.in file)
  #
  ################################################################################
    species        H
  #     global species definitions
      nucleus             1
      mass                1.00794
  #
      l_hartree           6
  #
      cut_pot             4.0  2.0  1.0
      basis_dep_cutoff    1e-4
  #
      radial_base         24 7.0
      radial_multiplier   2
      angular_grids       specified
        division   0.1930   50
        division   0.3175  110
        division   0.4293  194
        division   0.5066  302
        division   0.5626  434
  #      division   0.5922  590
  #      division   0.6227  974
  #      division   0.6868 1202
  #      outer_grid  770
        outer_grid  434
  ################################################################################
  #
  #  Definition of "minimal" basis
  #
  ################################################################################
  #     valence basis states
      valence      1  s   1.
  #     ion occupancy
      ion_occ      1  s   0.5
  ################################################################################
  #
  #  Suggested additional basis functions. For production calculations,
  #  uncomment them one after another (the most important basis functions are
  #  listed first).
  #
  #  Basis constructed for dimers: 0.5 A, 0.7 A, 1.0 A, 1.5 A, 2.5 A
  #
  ################################################################################
  #  "First tier" - improvements: -1014.90 meV to -62.69 meV
       hydro 2 s 2.1
       hydro 2 p 3.5
  #  "Second tier" - improvements: -12.89 meV to -1.83 meV
       hydro 1 s 0.85
       hydro 2 p 3.7
       hydro 2 s 1.2
       hydro 3 d 7
  #  "Third tier" - improvements: -0.25 meV to -0.12 meV
  #     hydro 4 f 11.2
  #     hydro 3 p 4.8
  #     hydro 4 d 9
  #     hydro 3 s 3.2
  ################################################################################
  #
  # For methods that use the localized form of the "resolution of identity" for
  # the two-electron Coulomb operator (RI_method LVL), particularly Hartree-Fock and
  # hybrid density functional calculations, the highest accuracy can be obtained by
  # uncommenting the line beginning with "for_aux"  below, thus adding an extra g radial
  # function to the construction of the product basis set for the expansion.
  # See Ref. New J. Phys. 17, 093020 (2015) for more information, particularly Figs. 1 and 6.
  #
  ################################################################################
  #
  # for_aux hydro 5 g 6.0
  ################################################################################
  #
  #  FHI-aims code project
  # Volker Blum, Fritz Haber Institute Berlin, 2009
  #
  #  Suggested "tight" defaults for C atom (to be pasted into control.in file)
  #
  ################################################################################
    species        C
  #     global species definitions
      nucleus             6
      mass                12.0107
  #
      l_hartree           6
  #
      cut_pot             4.0  2.0  1.0
      basis_dep_cutoff    1e-4
  #
      radial_base         34 7.0
      radial_multiplier   2
      angular_grids specified
        division   0.2187   50
        division   0.4416  110
        division   0.6335  194
        division   0.7727  302
        division   0.8772  434
  #      division   0.9334  590
  #      division   0.9924  770
  #      division   1.0230  974
  #      division   1.5020 1202
  #     outer_grid  974
        outer_grid  434
  ################################################################################
  #
  #  Definition of "minimal" basis
  #
  ################################################################################
  #     valence basis states
      valence      2  s   2.
      valence      2  p   2.
  #     ion occupancy
      ion_occ      2  s   1.
      ion_occ      2  p   1.
  ################################################################################
  #
  #  Suggested additional basis functions. For production calculations,
  #  uncomment them one after another (the most important basis functions are
  #  listed first).
  #
  #  Constructed for dimers: 1.0 A, 1.25 A, 1.5 A, 2.0 A, 3.0 A
  #
  ################################################################################
  #  "First tier" - improvements: -1214.57 meV to -155.61 meV
       hydro 2 p 1.7
       hydro 3 d 6
       hydro 2 s 4.9
  #  "Second tier" - improvements: -67.75 meV to -5.23 meV
       hydro 4 f 9.8
       hydro 3 p 5.2
       hydro 3 s 4.3
       hydro 5 g 14.4
       hydro 3 d 6.2
  #  "Third tier" - improvements: -2.43 meV to -0.60 meV
  #     hydro 2 p 5.6
  #     hydro 2 s 1.4
  #     hydro 3 d 4.9
  #     hydro 4 f 11.2
  #  "Fourth tier" - improvements: -0.39 meV to -0.18 meV
  #     hydro 2 p 2.1
  #     hydro 5 g 16.4
  #     hydro 4 d 13.2
  #     hydro 3 s 13.6
  #     hydro 4 f 17.6
  #  Further basis functions - improvements: -0.08 meV and below
  #     hydro 3 s 2
  #     hydro 3 p 6
  #     hydro 4 d 20
  ################################################################################
  #
  # For methods that use the localized form of the "resolution of identity" for
  # the two-electron Coulomb operator (RI_method LVL), particularly Hartree-Fock and
  # hybrid density functional calculations, the highest accuracy can be obtained by
  # uncommenting the line beginning with "for_aux"  below, thus adding an extra g radial
  # function to the construction of the product basis set for the expansion.
  # See Ref. New J. Phys. 17, 093020 (2015) for more information, particularly Figs. 1 and 6.
  #
  ################################################################################
  #
  # for_aux hydro 5 g 6.0
  
  -----------------------------------------------------------------------
  Completed first pass over input file control.in .
  -----------------------------------------------------------------------
  
  
  -----------------------------------------------------------------------
  Parsing geometry.in (first pass over file, find array dimensions only).
  The contents of geometry.in will be repeated verbatim below
  unless switched off by setting 'verbatim_writeout .false.' .
  in the first line of geometry.in .
  -----------------------------------------------------------------------
  
  #=======================================================
  # FHI-aims file: geometry.in
  # Created using the Atomic Simulation Environment (ASE)
  # Sun Jun 20 15:47:01 2021
  #=======================================================
  atom 6.6555350000000004 19.4505260000000000 35.7583529999999996 C
  atom 6.6294329999999997 18.0950270000000017 35.9680740000000014 C
  atom 5.7368160000000001 20.2629100000000015 36.4793670000000034 C
  atom 7.3645680000000002 19.8671760000000006 35.0535640000000015 H
  atom 5.7785729999999997 17.4719690000000014 36.8620719999999977 C
  atom 7.3299040000000000 17.4672130000000010 35.4136129999999980 H
  atom 4.8546360000000002 19.6546769999999995 37.3595869999999977 C
  atom 5.7472580000000004 21.6465420000000002 36.2482139999999973 C
  atom 5.7420309999999999 16.1012479999999982 37.0687319999999971 C
  atom 4.8389740000000003 18.2714530000000011 37.6167640000000034 C
  atom 3.9254769999999999 20.4849269999999990 38.0637630000000016 C
  atom 4.8180990000000001 22.4566240000000015 36.9508590000000012 C
  atom 6.6607580000000004 22.2799090000000000 35.3863640000000004 C
  atom 4.8546310000000004 15.4968229999999991 37.9520130000000009 C
  atom 6.4480089999999999 15.4703239999999997 36.5245260000000016 H
  atom 3.9045939999999999 17.6475979999999986 38.4770830000000004 C
  atom 2.9910960000000002 19.8610720000000001 38.9240819999999985 C
  atom 3.9463590000000002 21.8681799999999988 37.8341399999999979 C
  atom 4.8181010000000004 23.8521099999999997 36.7732839999999968 C
  atom 6.6242200000000002 23.6281789999999994 35.1781730000000010 C
  atom 7.4142120000000000 21.7063789999999983 34.8560889999999972 H
  atom 3.8837120000000001 16.2643449999999987 38.7067059999999969 C
  atom 4.9075860000000002 14.4191730000000007 38.0616199999999978 H
  atom 2.9754350000000001 18.4778480000000016 39.1812589999999972 C
  atom 2.0514980000000000 20.6605559999999997 39.6787750000000017 C
  atom 2.9754399999999999 22.6357019999999984 38.5888330000000011 C
  atom 4.1304189999999998 24.4833829999999999 37.3239189999999965 H
  atom 5.6950609999999999 24.4523180000000018 35.8609170000000006 C
  atom 7.3395690000000000 24.0820630000000016 34.4926730000000035 H
  atom 3.0119710000000000 15.6759009999999996 39.5899870000000007 C
  atom 2.0932539999999999 17.8696149999999996 40.0614789999999985 C
  atom 1.2006370000000000 20.0374979999999994 40.5727720000000005 C
  atom 2.0880390000000002 22.0312769999999993 39.4721139999999977 C
  atom 2.9224839999999999 23.7133520000000004 38.4792270000000016 H
  atom 5.6939919999999997 25.5310729999999992 35.7173269999999974 H
  atom 3.0119699999999998 14.2804160000000007 39.7675619999999981 C
  atom 2.0828129999999998 16.4859830000000009 40.2926319999999976 C
  atom 1.1745360000000000 18.6819990000000011 40.7824939999999998 C
  atom 0.5001660000000000 20.6653120000000001 41.1272340000000014 H
  atom 1.3820610000000000 22.6622009999999996 40.0163200000000003 H
  atom 2.1350090000000002 13.6802069999999993 40.6799290000000013 C
  atom 3.6996519999999999 13.6491419999999994 39.2169269999999983 H
  atom 1.1693119999999999 15.8526159999999994 41.1544820000000016 C
  atom 0.4655030000000000 18.2653490000000005 41.4872820000000004 H
  atom 1.2058510000000000 14.5043460000000000 41.3626730000000009 C
  atom 2.1360779999999999 12.6014520000000001 40.8235200000000020 H
  atom 0.4158580000000000 16.4261459999999992 41.6847569999999976 H
  atom 0.4905010000000000 14.0504619999999996 42.0481729999999985 H
  
  -----------------------------------------------------------------------
  Completed first pass over input file geometry.in .
  -----------------------------------------------------------------------
  

  Basic array size parameters:
  | Number of species                 :        2
  | Number of atoms                   :       48
  | Max. basis fn. angular momentum   :        4
  | Max. atomic/ionic basis occupied n:        2
  | Max. number of basis fn. types    :        2
  | Max. radial fns per species/type  :        8
  | Max. logarithmic grid size        :     1277
  | Max. radial integration grid size :       69
  | Max. angular integration grid size:      434
  | Max. angular grid division number :        8
  | Radial grid for Hartree potential :     1277
  | Number of spin channels           :        1

------------------------------------------------------------
          Reading file control.in.
------------------------------------------------------------
  XC: Using PBE gradient-corrected functionals.
  Scalar relativistic treatment of kinetic energy: ZORA.
  Threshold value for ZORA:   0.100000E-11
  Occupation type: Gaussian broadening, width =   0.100000E-03 eV.
  Since 'load_balancing .true.' is present in control.in, automatically turning on 'use_local_index .true.'.
  Using load balancing for integrations.
  Kohn-Sham electronic structure solved by the ELSI library.
  Using pulay charge density mixing.
  Pulay mixing - number of memorized iterations:    5
  Charge density mixing - mixing parameter:     0.4000
  Convergence accuracy of total energy:  0.1000E-05
  Convergence accuracy of sum of eigenvalues:  0.1000E-03
  Convergence accuracy of self-consistent charge density:  0.1000E-05
  Maximum number of s.-c. iterations  :   100
  * Ignoring prodbas_threshold
  Threshold for basis singularities:  0.1000E-04
  override_illconditioning: Explicitly overriding any built-in checks for an ill-conditioned overlap matrix.
  *** WARNING: If you use this flag, you should really know what you are doing.
  *** DO NOT keep this flag set by default in all your control.in files.
  Using 1D integrations for auxiliary 2-center integrals.
  Spin treatment: No spin polarisation.
  Charge =   0.000000E+00: Neutral system requested explicitly.
 
  Reading configuration options for species H                   .
  | Found nuclear charge :   1.0000
  | Found atomic mass :    1.00794000000000      amu
  | Found l_max for Hartree potential  :   6
  | Found cutoff potl. onset [A], width [A], scale factor :    4.00000    2.00000    1.00000
  | Threshold for basis-dependent cutoff potential is   0.100000E-03
  | Found data for basic radial integration grid :    24 points, outermost radius =    7.000 A
  | Found multiplier for basic radial grid :   2
  | Found angular grid specification: user-specified.
  | Specified grid contains     6 separate shells.
  | Check grid settings after all constraints further below.
  | Found free-atom valence shell :  1 s   1.000
  | No ionic wave fns used. Skipping ion_occ.
  | Found hydrogenic basis function :  2 s   2.100
  | Found hydrogenic basis function :  2 p   3.500
  | Found hydrogenic basis function :  1 s   0.850
  | Found hydrogenic basis function :  2 p   3.700
  | Found hydrogenic basis function :  2 s   1.200
  | Found hydrogenic basis function :  3 d   7.000
  Species H                   : Missing cutoff potential type.
  Defaulting to exp(1/x)/(1-x)^2 type cutoff potential.
  Species H : No 'logarithmic' tag. Using default grid for free atom:
  | Default logarithmic grid data [bohr] : 0.1000E-03 0.1000E+03 0.1012E+01
  Species H : On-site basis accuracy parameter (for Gram-Schmidt orthonormalisation) not specified.
  Using default value basis_acc =  0.1000000E-03.
  Species H                   : Using default innermost maximum threshold i_radial=  2 for radial functions.
  Species H                   : Default cutoff onset for free atom density etc. : 0.40000000E+01 AA.
  Species H                   : Basic radial grid will be enhanced according to radial_multiplier =   2, to contain    49 grid points.
 
  Reading configuration options for species C                   .
  | Found nuclear charge :   6.0000
  | Found atomic mass :    12.0107000000000      amu
  | Found l_max for Hartree potential  :   6
  | Found cutoff potl. onset [A], width [A], scale factor :    4.00000    2.00000    1.00000
  | Threshold for basis-dependent cutoff potential is   0.100000E-03
  | Found data for basic radial integration grid :    34 points, outermost radius =    7.000 A
  | Found multiplier for basic radial grid :   2
  | Found angular grid specification: user-specified.
  | Specified grid contains     6 separate shells.
  | Check grid settings after all constraints further below.
  | Found free-atom valence shell :  2 s   2.000
  | Found free-atom valence shell :  2 p   2.000
  | No ionic wave fns used. Skipping ion_occ.
  | No ionic wave fns used. Skipping ion_occ.
  | Found hydrogenic basis function :  2 p   1.700
  | Found hydrogenic basis function :  3 d   6.000
  | Found hydrogenic basis function :  2 s   4.900
  | Found hydrogenic basis function :  4 f   9.800
  | Found hydrogenic basis function :  3 p   5.200
  | Found hydrogenic basis function :  3 s   4.300
  | Found hydrogenic basis function :  5 g  14.400
  | Found hydrogenic basis function :  3 d   6.200
  Species C                   : Missing cutoff potential type.
  Defaulting to exp(1/x)/(1-x)^2 type cutoff potential.
  Species C : No 'logarithmic' tag. Using default grid for free atom:
  | Default logarithmic grid data [bohr] : 0.1000E-03 0.1000E+03 0.1012E+01
  Species C : On-site basis accuracy parameter (for Gram-Schmidt orthonormalisation) not specified.
  Using default value basis_acc =  0.1000000E-03.
  Species C                   : Using default innermost maximum threshold i_radial=  2 for radial functions.
  Species C                   : Default cutoff onset for free atom density etc. : 0.40000000E+01 AA.
  Species C                   : Basic radial grid will be enhanced according to radial_multiplier =   2, to contain    69 grid points.
 
  Finished reading input file 'control.in'. Consistency checks are next.
 
  MPI_IN_PLACE appears to work with this MPI implementation.
  | Keeping use_mpi_in_place .true. (see manual).
  Target number of points in a grid batch is not set. Defaulting to  100
  Method for grid partitioning is not set. Defaulting to parallel hash+maxmin partitioning.
  Batch size limit is not set. Defaulting to    200
  By default, will store active basis functions for each batch.
  If in need of memory, prune_basis_once .false. can be used to disable this option.
  communication_type for Hartree potential was not specified.
  Defaulting to calc_hartree .
  Pulay mixer: Number of initial linear mixing iterations not set.
  Defaulting to    0 iterations.
  Work space size for distributed Hartree potential not set.
  Defaulting to   0.200000E+03 MB.
  Algorithm-dependent basis array size parameters:
  | n_max_pulay                         :        5
  Presetting      1001 iterations before the initial mixing cycle
  is restarted anyway using the sc_init_iter criterion / keyword.
  Presetting a factor      1.000 between actual scf density residual
  and density convergence criterion sc_accuracy_rho below which sc_init_iter
  takes no effect.
  Calculation of forces was not defined in control.in. No forces will be calculated.
  Geometry relaxation not requested: no relaxation will be performed.
  No accuracy limit for integral partition fn. given. Defaulting to  0.1000E-14.
  No threshold value for u(r) in integrations given. Defaulting to  0.1000E-05.
  No accuracy for occupation numbers given. Defaulting to  0.1000E-12.
  No threshold value for occupation numbers given. Defaulting to  0.0000E+00.
  No accuracy for fermi level given. Defaulting to  0.1000E-19.
  Maximum # of iterations to find E_F not set. Defaulting to  200.
  Will not use alltoall communication since running on < 1024 CPUs.
  partition_type (choice of integration weights) for integrals was not specified.
  | Using a version of the partition function of Stratmann and coworkers ('stratmann_sparse').
  | At each grid point, the set of atoms used to build the partition table is smoothly restricted to
  | only those atoms whose free-atom density would be non-zero at that grid point.
  Partitioning for Hartree potential was not defined. Using partition_type for integrals.
  | Adjusted default value of keyword multip_moments_threshold to:       0.10000000E-11
  | This value may affect high angular momentum components of the Hartree potential in periodic systems.
  No q(lm)/r^(l+1) cutoff set for long-range Hartree potential.
  | Using default value of  0.100000E-09 .
  | Verify using the multipole_threshold keyword.
  Defaulting to new monopole extrapolation.
  Density update method: automatic selection selected.
 * Warning: use_local_index and/or load_balancing needs packed_matrix_format = index
 * Changing the default setting to packed_matrix_format = index
------------------------------------------------------------


------------------------------------------------------------
          Reading geometry description geometry.in.
------------------------------------------------------------
  Input structure read successfully.
  The structure contains       48 atoms,  and a total of        208.000 electrons.

  Input geometry:
  | No unit cell requested.
  | Atomic structure:
  |       Atom                x [A]            y [A]            z [A]
  |    1: Species C             6.65553500       19.45052600       35.75835300
  |    2: Species C             6.62943300       18.09502700       35.96807400
  |    3: Species C             5.73681600       20.26291000       36.47936700
  |    4: Species H             7.36456800       19.86717600       35.05356400
  |    5: Species C             5.77857300       17.47196900       36.86207200
  |    6: Species H             7.32990400       17.46721300       35.41361300
  |    7: Species C             4.85463600       19.65467700       37.35958700
  |    8: Species C             5.74725800       21.64654200       36.24821400
  |    9: Species C             5.74203100       16.10124800       37.06873200
  |   10: Species C             4.83897400       18.27145300       37.61676400
  |   11: Species C             3.92547700       20.48492700       38.06376300
  |   12: Species C             4.81809900       22.45662400       36.95085900
  |   13: Species C             6.66075800       22.27990900       35.38636400
  |   14: Species C             4.85463100       15.49682300       37.95201300
  |   15: Species H             6.44800900       15.47032400       36.52452600
  |   16: Species C             3.90459400       17.64759800       38.47708300
  |   17: Species C             2.99109600       19.86107200       38.92408200
  |   18: Species C             3.94635900       21.86818000       37.83414000
  |   19: Species C             4.81810100       23.85211000       36.77328400
  |   20: Species C             6.62422000       23.62817900       35.17817300
  |   21: Species H             7.41421200       21.70637900       34.85608900
  |   22: Species C             3.88371200       16.26434500       38.70670600
  |   23: Species H             4.90758600       14.41917300       38.06162000
  |   24: Species C             2.97543500       18.47784800       39.18125900
  |   25: Species C             2.05149800       20.66055600       39.67877500
  |   26: Species C             2.97544000       22.63570200       38.58883300
  |   27: Species H             4.13041900       24.48338300       37.32391900
  |   28: Species C             5.69506100       24.45231800       35.86091700
  |   29: Species H             7.33956900       24.08206300       34.49267300
  |   30: Species C             3.01197100       15.67590100       39.58998700
  |   31: Species C             2.09325400       17.86961500       40.06147900
  |   32: Species C             1.20063700       20.03749800       40.57277200
  |   33: Species C             2.08803900       22.03127700       39.47211400
  |   34: Species H             2.92248400       23.71335200       38.47922700
  |   35: Species H             5.69399200       25.53107300       35.71732700
  |   36: Species C             3.01197000       14.28041600       39.76756200
  |   37: Species C             2.08281300       16.48598300       40.29263200
  |   38: Species C             1.17453600       18.68199900       40.78249400
  |   39: Species H             0.50016600       20.66531200       41.12723400
  |   40: Species H             1.38206100       22.66220100       40.01632000
  |   41: Species C             2.13500900       13.68020700       40.67992900
  |   42: Species H             3.69965200       13.64914200       39.21692700
  |   43: Species C             1.16931200       15.85261600       41.15448200
  |   44: Species H             0.46550300       18.26534900       41.48728200
  |   45: Species C             1.20585100       14.50434600       41.36267300
  |   46: Species H             2.13607800       12.60145200       40.82352000
  |   47: Species H             0.41585800       16.42614600       41.68475700
  |   48: Species H             0.49050100       14.05046200       42.04817300
  |

  | The smallest distance between any two atoms is         1.08307486 AA.
  |
  | The first atom of this pair is atom number                     38 .
  | The second atom of this pair is atom number                    44 .

  Number of empty states per atom not set in control.in - providing a guess from actual geometry.
  | Total number of empty states used during s.c.f. cycle:      120
  If you use a very high smearing, use empty_states (per atom!) in control.in to increase this value.

  Structure-dependent array size parameters: 
  | Maximum number of distinct radial functions  :       18
  | Maximum number of basis functions            :     1488
  | Number of Kohn-Sham states (occupied + empty):      224
------------------------------------------------------------

------------------------------------------------------------
          Preparing all fixed parts of the calculation.
------------------------------------------------------------
  Determining machine precision:
    2.225073858507201E-308
  Setting up grids for atomic and cluster calculations.

  Creating wave function, potential, and density for free atoms.

  Species: H

  List of occupied orbitals and eigenvalues:
    n    l              occ      energy [Ha]    energy [eV]
    1    0           1.0000        -0.238386        -6.4868


  Species: C

  List of occupied orbitals and eigenvalues:
    n    l              occ      energy [Ha]    energy [eV]
    1    0           2.0000       -10.049212      -273.4530
    2    0           2.0000        -0.504761       -13.7352
    2    1           2.0000        -0.193631        -5.2690

  Creating fixed part of basis set: Ionic, confined, hydrogenic.
 
  H                    hydrogenic:
 
  List of hydrogenic basis orbitals: 
    n    l      effective z      eigenvalue [eV]  inner max. [A]     outer max. [A]     outer radius [A]   
    2    0         2.100000       -14.9965           0.193243           1.317208           5.373006
    2    1         3.500000       -41.6672           0.602369           0.602369           4.056063
    1    0         0.850000        -9.8292           0.624871           0.624871           5.373006
    2    1         3.700000       -46.5653           0.573622           0.573622           3.910002
    2    0         1.200000        -4.5995           0.334980           2.228188           5.505995
    3    2         7.000000       -74.0753           0.680699           0.680699           3.769201
 
 
  C                    hydrogenic:
 
  List of hydrogenic basis orbitals: 
    n    l      effective z      eigenvalue [eV]  inner max. [A]     outer max. [A]     outer radius [A]   
    2    1         1.700000        -9.8152           1.245706           1.245706           5.401630
    3    2         6.000000       -54.4226           0.792453           0.792453           4.178599
    2    0         4.900000       -81.6681           0.082559           0.562749           3.353238
    4    3         9.800000       -81.6681           0.863254           0.863254           4.028125
    3    1         5.200000       -40.8774           0.305389           1.215618           4.898362
    3    0         4.300000       -27.9508           0.091041           1.610311           5.401630
    5    4        14.400000      -112.8510           0.917666           0.917666           3.883070
    3    2         6.200000       -58.1113           0.763917           0.763917           4.077671
 

  Adding cutoff potential to free-atom effective potential.
  Creating atomic-like basis functions for current effective potential.

  Species H                   :

  List of atomic basis orbitals and eigenvalues:
    n    l      energy [Ha]    energy [eV]    outer radius [A]
    1    0        -0.238386        -6.4868       5.373006


  Species C                   :

  List of atomic basis orbitals and eigenvalues:
    n    l      energy [Ha]    energy [eV]    outer radius [A]
    1    0       -10.049212      -273.4530       1.934409
    2    0        -0.504761       -13.7352       5.271162
    2    1        -0.193631        -5.2690       5.401630

  Assembling full basis from fixed parts.
  | Species H :   atomic orbital   1 s accepted.
  | Species H :    hydro orbital   2 s accepted.
  | Species H :    hydro orbital   1 s accepted.
  | Species H :    hydro orbital   2 s accepted.
  | Species H :    hydro orbital   2 p accepted.
  | Species H :    hydro orbital   2 p accepted.
  | Species H :    hydro orbital   3 d accepted.
  | Species C :   atomic orbital   1 s accepted.
  | Species C :    hydro orbital   2 s accepted.
  | Species C :   atomic orbital   2 s accepted.
  | Species C :    hydro orbital   3 s accepted.
  | Species C :    hydro orbital   3 p accepted.
  | Species C :   atomic orbital   2 p accepted.
  | Species C :    hydro orbital   2 p accepted.
  | Species C :    hydro orbital   3 d accepted.
  | Species C :    hydro orbital   3 d accepted.
  | Species C :    hydro orbital   4 f accepted.
  | Species C :    hydro orbital   5 g accepted.
 
  Basis size parameters after reduction:
  | Total number of radial functions:       18
  | Total number of basis functions :     1488
 
  Per-task memory consumption for arrays in subroutine allocate_ext:
  |           4.448056MB.
  Testing on-site integration grid accuracy.
  |  Species  Function  <phi|h_atom|phi> (log., in eV)  <phi|h_atom|phi> (rad., in eV)
           1        1                 -6.4870767962                 -6.4871688290
           1        2                 13.5032046589                 13.5028982997
           1        3                 32.8195184817                 32.8119941656
           1        4                 33.8513856511                 33.7670005767 ***
           1        5                 28.8544614965                 28.8544615203
           1        6                 59.6326952547                 59.6327656460
           1        7                 60.2719308513                 60.2719305949
           2        8               -273.4529726040               -273.4529710464
           2        9                -10.7721037319                -10.7721022101
           2       10                 17.6044132601                 17.6044162063
           2       11                 53.7706460658                 53.7706913770
           2       12                 15.0973290362                 15.0973256030
           2       13                  3.8545134692                  3.8545724687
           2       14                 12.1156992592                 12.1182024431
           2       15                 29.4352039302                 29.4352041816
           2       16                 54.8741144708                 54.8740268729
           2       17                 59.3556032049                 59.3556031382
           2       18                 93.4551837154                 93.4551838009
 * Note: Onsite integrals marked "***" above are less accurate than
 * onsite_accuracy_threshold =    0.03000 eV. Usually, this is harmless.
 * When in doubt, tighten the "radial" and/or "radial_multiplier" flags to check.

  Preparing densities etc. for the partition functions (integrals / Hartree potential).

  Preparations completed.
  max(cpu_time)          :      0.193 s.
  Wall clock time (cpu1) :      0.202 s.
------------------------------------------------------------

------------------------------------------------------------
          Begin self-consistency loop: Initialization.

          Date     :  20210620, Time     :  164758.912
------------------------------------------------------------

  Initializing index lists of integration centers etc. from given atomic structure:
  | Number of centers in hartree potential         :        48
  | Number of centers in hartree multipole         :        48
  | Number of centers in electron density summation:        48
  | Number of centers in basis integrals           :        48
  | Number of centers in integrals                 :        48
  | Number of centers in hamiltonian               :        48
  * Using 56 tasks for Scalapack Eigenvalue solver.
  Detailed listing of tasks and assigned k-points:
  (for non-periodic systems, the "k-point" denotes an internal label only)
   Task     0 k-point     1 on d021
   Task     1 k-point     1 on d021
   Task     2 k-point     1 on d021
   Task     3 k-point     1 on d021
   Task     4 k-point     1 on d021
   Task     5 k-point     1 on d021
   Task     6 k-point     1 on d021
   Task     7 k-point     1 on d021
   Task     8 k-point     1 on d021
   Task     9 k-point     1 on d021
   Task    10 k-point     1 on d021
   Task    11 k-point     1 on d021
   Task    12 k-point     1 on d021
   Task    13 k-point     1 on d021
   Task    14 k-point     1 on d021
   Task    15 k-point     1 on d021
   Task    16 k-point     1 on d021
   Task    17 k-point     1 on d021
   Task    18 k-point     1 on d021
   Task    19 k-point     1 on d021
   Task    20 k-point     1 on d021
   Task    21 k-point     1 on d021
   Task    22 k-point     1 on d021
   Task    23 k-point     1 on d021
   Task    24 k-point     1 on d021
   Task    25 k-point     1 on d021
   Task    26 k-point     1 on d021
   Task    27 k-point     1 on d021
   Task    28 k-point     1 on d021
   Task    29 k-point     1 on d021
   Task    30 k-point     1 on d021
   Task    31 k-point     1 on d021
   Task    32 k-point     1 on d021
   Task    33 k-point     1 on d021
   Task    34 k-point     1 on d021
   Task    35 k-point     1 on d021
   Task    36 k-point     1 on d021
   Task    37 k-point     1 on d021
   Task    38 k-point     1 on d021
   Task    39 k-point     1 on d021
   Task    40 k-point     1 on d021
   Task    41 k-point     1 on d021
   Task    42 k-point     1 on d021
   Task    43 k-point     1 on d021
   Task    44 k-point     1 on d021
   Task    45 k-point     1 on d021
   Task    46 k-point     1 on d021
   Task    47 k-point     1 on d021
   Task    48 k-point     1 on d021
   Task    49 k-point     1 on d021
   Task    50 k-point     1 on d021
   Task    51 k-point     1 on d021
   Task    52 k-point     1 on d021
   Task    53 k-point     1 on d021
   Task    54 k-point     1 on d021
   Task    55 k-point     1 on d021
  Tasks:    56 split into      8 X      7 BLACS grid
  Calculating block size based on n_basis =         1488 max_nprow =            8 max_npcol =            7
  ScaLAPACK block size set to:           16
  Allocating        0.344 MB for ovlp
  Allocating        0.344 MB for ham
  Allocating        0.344 MB for eigenvec
  Required Scalapack workspace - INTEGER:            1 REAL:             1
  Partitioning the integration grid into batches with parallel hashing+maxmin method.
  | Number of batches:     7111
  | Maximal batch size:     200
  | Minimal batch size:       2
  | Average batch size:     113.865
  | Standard deviation of batch sizes:      31.041

  Integration load balanced across     56 MPI tasks.
  Work distribution over tasks is as follows:
  Task      0 has      14515 integration points.
  Task      1 has      14552 integration points.
  Task      2 has      14385 integration points.
  Task      3 has      14490 integration points.
  Task      4 has      14483 integration points.
  Task      5 has      14497 integration points.
  Task      6 has      14389 integration points.
  Task      7 has      14479 integration points.
  Task      8 has      14505 integration points.
  Task      9 has      14370 integration points.
  Task     10 has      14551 integration points.
  Task     11 has      14372 integration points.
  Task     12 has      14429 integration points.
  Task     13 has      14409 integration points.
  Task     14 has      14558 integration points.
  Task     15 has      14489 integration points.
  Task     16 has      14380 integration points.
  Task     17 has      14572 integration points.
  Task     18 has      14390 integration points.
  Task     19 has      14573 integration points.
  Task     20 has      14315 integration points.
  Task     21 has      14646 integration points.
  Task     22 has      14402 integration points.
  Task     23 has      14378 integration points.
  Task     24 has      14482 integration points.
  Task     25 has      14455 integration points.
  Task     26 has      14479 integration points.
  Task     27 has      14303 integration points.
  Task     28 has      14547 integration points.
  Task     29 has      14514 integration points.
  Task     30 has      14401 integration points.
  Task     31 has      14537 integration points.
  Task     32 has      14386 integration points.
  Task     33 has      14580 integration points.
  Task     34 has      14324 integration points.
  Task     35 has      14534 integration points.
  Task     36 has      14542 integration points.
  Task     37 has      14391 integration points.
  Task     38 has      14478 integration points.
  Task     39 has      14474 integration points.
  Task     40 has      14466 integration points.
  Task     41 has      14391 integration points.
  Task     42 has      14550 integration points.
  Task     43 has      14506 integration points.
  Task     44 has      14374 integration points.
  Task     45 has      14499 integration points.
  Task     46 has      14397 integration points.
  Task     47 has      14454 integration points.
  Task     48 has      14415 integration points.
  Task     49 has      14484 integration points.
  Task     50 has      14448 integration points.
  Task     51 has      14439 integration points.
  Task     52 has      14556 integration points.
  Task     53 has      14401 integration points.
  Task     54 has      14466 integration points.
  Task     55 has      14294 integration points.
  Initializing partition tables, free-atom densities, potentials, etc. across the integration grid (initialize_grid_storage).
  | initialize_grid_storage: Actual outermost partition radius vs. multipole_radius_free
  | (-- VB: in principle, multipole_radius_free should be larger, hence this output)
  | Species        1: Confinement radius =              6.000000000000000 AA, multipole_radius_free =              6.071692442739658 AA.
  | Species        1: outer_partition_radius set to              6.071692442739658 AA .
  | Species        2: Confinement radius =              6.000000000000000 AA, multipole_radius_free =              6.029870734432609 AA.
  | Species        2: outer_partition_radius set to              6.029870734432609 AA .
  | The sparse table of interatomic distances needs     27.2680 kbyte instead of    18.4320 kbyte of memory.
  | Using the partition_type stratmann_smoother will reduce your memory usage.
  | Net number of integration points:   809696
  | of which are non-zero points    :   648934
  Renormalizing the initial density to the exact electron count on the 3D integration grid.
  | Initial density: Formal number of electrons (from input files) :     208.0000000000
  | Integrated number of electrons on 3D grid     :     207.9996346057
  | Charge integration error                      :      -0.0003653943
  | Normalization factor for density and gradient :       1.0000017567
  Obtaining max. number of non-zero basis functions in each batch (get_n_compute_maxes).
  | Maximal number of non-zero basis functions:     1038
  Selecting the method for density update.
  Loop over occupied states selected for charge density update.
  Hamiltonian matrix size:
  | Size of matrix non-packed:               1107816
  | Size of matrix packed:          984890
  Allocating        2.666 MB for KS_eigenvector
  use_local_index: Max. local matrix size =       772956
  Task:     0 matrix size:     296759
  Task:     1 matrix size:     761081
  Task:     2 matrix size:     710052
  Task:     3 matrix size:     281567
  Task:     4 matrix size:     350834
  Task:     5 matrix size:     507146
  Task:     6 matrix size:     607413
  Task:     7 matrix size:     105111
  Task:     8 matrix size:     190036
  Task:     9 matrix size:     165600
  Task:    10 matrix size:     280588
  Task:    11 matrix size:     234321
  Task:    12 matrix size:     479487
  Task:    13 matrix size:     364798
  Task:    14 matrix size:     424649
  Task:    15 matrix size:     207239
  Task:    16 matrix size:     321622
  Task:    17 matrix size:     532712
  Task:    18 matrix size:     688315
  Task:    19 matrix size:     237565
  Task:    20 matrix size:     366610
  Task:    21 matrix size:     317268
  Task:    22 matrix size:     346012
  Task:    23 matrix size:     284159
  Task:    24 matrix size:     751186
  Task:    25 matrix size:     737364
  Task:    26 matrix size:     772956
  Task:    27 matrix size:     629421
  Task:    28 matrix size:     689540
  Task:    29 matrix size:     750431
  Task:    30 matrix size:     755057
  Task:    31 matrix size:     337244
  Task:    32 matrix size:     408299
  Task:    33 matrix size:     374333
  Task:    34 matrix size:     442476
  Task:    35 matrix size:     327360
  Task:    36 matrix size:     672600
  Task:    37 matrix size:     489980
  Task:    38 matrix size:     288957
  Task:    39 matrix size:     192298
  Task:    40 matrix size:     487379
  Task:    41 matrix size:     377460
  Task:    42 matrix size:     491391
  Task:    43 matrix size:     324209
  Task:    44 matrix size:     261846
  Task:    45 matrix size:     255239
  Task:    46 matrix size:     117855
  Task:    47 matrix size:     134931
  Task:    48 matrix size:     172569
  Task:    49 matrix size:     566958
  Task:    50 matrix size:     429108
  Task:    51 matrix size:     233565
  Task:    52 matrix size:     693010
  Task:    53 matrix size:     753466
  Task:    54 matrix size:     401325
  Task:    55 matrix size:     236637
  Integrating Hamiltonian matrix: batch-based integration.
  Time summed over all CPUs for integration: real work      153.443 s, elapsed      305.727 s
  Time get_set_sparse_local_matrix_scalapack:     0.015667 s
  Start compute_balanced_batch_distribution
  Done load balancing, time needed:      0.008 s
  Integrating overlap matrix with loadbalancing
  Time summed over all CPUs for integration: real work       42.352 s, elapsed       49.012 s
  Time get_set_full_local_matrix_scalapack:     0.018189 s

  Updating Kohn-Sham eigenvalues and eigenvectors using ELSI and the ELPA eigensolver.
  Overlap matrix is not singular
  | Lowest and highest eigenvalues :  0.12E+02,  0.77E-04
  Finished singularity check of overlap matrix
  | Time :     0.089 s
  Finished Cholesky decomposition
  | Time :     0.020 s
  Finished transformation to standard eigenproblem
  | Time :     0.014 s
  Starting ELPA eigensolver
  Finished solving standard eigenproblem
  | Time :     0.091 s
  Finished back-transformation of eigenvectors
  | Time :     0.004 s

  Obtaining occupation numbers and chemical potential using ELSI.
  | Chemical potential (Fermi level):    -7.84602208 eV
  Writing Kohn-Sham eigenvalues.

  State    Occupation    Eigenvalue [Ha]    Eigenvalue [eV]
      1       2.00000         -10.175066         -276.87764
      2       2.00000         -10.175066         -276.87763
      3       2.00000         -10.174955         -276.87462
      4       2.00000         -10.174955         -276.87462
      5       2.00000         -10.173595         -276.83762
      6       2.00000         -10.173595         -276.83761
      7       2.00000         -10.173106         -276.82430
      8       2.00000         -10.173106         -276.82430
      9       2.00000         -10.172796         -276.81586
     10       2.00000         -10.172796         -276.81586
     11       2.00000         -10.171605         -276.78345
     12       2.00000         -10.171604         -276.78342
     13       2.00000         -10.171571         -276.78253
     14       2.00000         -10.171571         -276.78252
     15       2.00000         -10.171105         -276.76985
     16       2.00000         -10.171105         -276.76984
     17       2.00000         -10.170899         -276.76424
     18       2.00000         -10.170899         -276.76424
     19       2.00000         -10.170686         -276.75844
     20       2.00000         -10.170686         -276.75844
     21       2.00000         -10.170529         -276.75418
     22       2.00000         -10.170529         -276.75418
     23       2.00000         -10.168131         -276.68893
     24       2.00000         -10.168129         -276.68887
     25       2.00000         -10.168121         -276.68865
     26       2.00000         -10.168121         -276.68865
     27       2.00000         -10.165594         -276.61988
     28       2.00000         -10.165593         -276.61985
     29       2.00000         -10.165274         -276.61118
     30       2.00000         -10.165274         -276.61118
     31       2.00000         -10.163925         -276.57447
     32       2.00000         -10.163925         -276.57447
     33       2.00000          -1.037929          -28.24348
     34       2.00000          -1.019448          -27.74059
     35       2.00000          -1.001557          -27.25375
     36       2.00000          -0.994889          -27.07230
     37       2.00000          -0.967905          -26.33803
     38       2.00000          -0.962131          -26.18091
     39       2.00000          -0.950238          -25.85730
     40       2.00000          -0.927533          -25.23947
     41       2.00000          -0.922349          -25.09838
     42       2.00000          -0.906379          -24.66382
     43       2.00000          -0.893318          -24.30842
     44       2.00000          -0.883142          -24.03152
     45       2.00000          -0.879440          -23.93078
     46       2.00000          -0.862902          -23.48076
     47       2.00000          -0.852428          -23.19576
     48       2.00000          -0.846325          -23.02967
     49       2.00000          -0.801848          -21.81940
     50       2.00000          -0.788170          -21.44720
     51       2.00000          -0.786102          -21.39092
     52       2.00000          -0.783600          -21.32284
     53       2.00000          -0.767648          -20.88876
     54       2.00000          -0.758428          -20.63789
     55       2.00000          -0.730928          -19.88955
     56       2.00000          -0.726347          -19.76490
     57       2.00000          -0.722113          -19.64971
     58       2.00000          -0.696459          -18.95162
     59       2.00000          -0.690154          -18.78006
     60       2.00000          -0.682326          -18.56705
     61       2.00000          -0.680897          -18.52816
     62       2.00000          -0.659713          -17.95169
     63       2.00000          -0.652111          -17.74485
     64       2.00000          -0.652107          -17.74473
     65       2.00000          -0.631012          -17.17070
     66       2.00000          -0.630033          -17.14406
     67       2.00000          -0.615741          -16.75517
     68       2.00000          -0.612672          -16.67164
     69       2.00000          -0.606899          -16.51457
     70       2.00000          -0.594531          -16.17801
     71       2.00000          -0.589201          -16.03298
     72       2.00000          -0.587129          -15.97661
     73       2.00000          -0.584891          -15.91569
     74       2.00000          -0.581268          -15.81711
     75       2.00000          -0.573311          -15.60058
     76       2.00000          -0.570145          -15.51442
     77       2.00000          -0.568814          -15.47821
     78       2.00000          -0.557039          -15.15780
     79       2.00000          -0.548651          -14.92956
     80       2.00000          -0.545876          -14.85405
     81       2.00000          -0.540324          -14.70298
     82       2.00000          -0.534802          -14.55271
     83       2.00000          -0.534162          -14.53528
     84       2.00000          -0.521946          -14.20287
     85       2.00000          -0.516633          -14.05829
     86       2.00000          -0.516257          -14.04805
     87       2.00000          -0.509305          -13.85889
     88       2.00000          -0.507747          -13.81650
     89       2.00000          -0.506567          -13.78439
     90       2.00000          -0.500430          -13.61739
     91       2.00000          -0.488236          -13.28559
     92       2.00000          -0.474045          -12.89942
     93       2.00000          -0.473131          -12.87456
     94       2.00000          -0.466776          -12.70162
     95       2.00000          -0.462559          -12.58686
     96       2.00000          -0.437583          -11.90725
     97       2.00000          -0.434844          -11.83271
     98       2.00000          -0.408222          -11.10830
     99       2.00000          -0.403674          -10.98454
    100       2.00000          -0.398199          -10.83554
    101       2.00000          -0.395164          -10.75296
    102       2.00000          -0.379557          -10.32828
    103       2.00000          -0.360047           -9.79736
    104       2.00000          -0.352036           -9.57940
    105       0.00000          -0.261809           -7.12418
    106       0.00000          -0.254994           -6.93874
    107       0.00000          -0.241964           -6.58416
    108       0.00000          -0.223456           -6.08055
    109       0.00000          -0.212203           -5.77432
    110       0.00000          -0.209274           -5.69464
    111       0.00000          -0.198867           -5.41146
    112       0.00000          -0.172859           -4.70373
    113       0.00000          -0.172028           -4.68112
    114       0.00000          -0.129546           -3.52513
    115       0.00000          -0.115535           -3.14387
    116       0.00000          -0.115107           -3.13222
    117       0.00000          -0.074259           -2.02069
    118       0.00000          -0.070447           -1.91697
    119       0.00000          -0.067199           -1.82859
    120       0.00000          -0.064103           -1.74433
    121       0.00000          -0.060442           -1.64471
    122       0.00000          -0.053421           -1.45366
    123       0.00000          -0.042815           -1.16506
    124       0.00000          -0.038434           -1.04585
    125       0.00000          -0.035338           -0.96160
    126       0.00000          -0.031601           -0.85991
    127       0.00000          -0.025629           -0.69741
    128       0.00000          -0.020816           -0.56642
    129       0.00000          -0.014093           -0.38348
    130       0.00000          -0.013954           -0.37971
    131       0.00000          -0.010714           -0.29155
    132       0.00000          -0.009823           -0.26731
    133       0.00000          -0.003075           -0.08367
    134       0.00000           0.000606            0.01650
    135       0.00000           0.003212            0.08741
    136       0.00000           0.005379            0.14636
    137       0.00000           0.009001            0.24492
    138       0.00000           0.019091            0.51949
    139       0.00000           0.019978            0.54363
    140       0.00000           0.021080            0.57361
    141       0.00000           0.025965            0.70655
    142       0.00000           0.026563            0.72281
    143       0.00000           0.029197            0.79448
    144       0.00000           0.031774            0.86461
    145       0.00000           0.036763            1.00037
    146       0.00000           0.039555            1.07636
    147       0.00000           0.041206            1.12128
    148       0.00000           0.041271            1.12304
    149       0.00000           0.044284            1.20503
    150       0.00000           0.048365            1.31609
    151       0.00000           0.053219            1.44817
    152       0.00000           0.058527            1.59259
    153       0.00000           0.060335            1.64180
    154       0.00000           0.061572            1.67545
    155       0.00000           0.064686            1.76020
    156       0.00000           0.070451            1.91707
    157       0.00000           0.072264            1.96639
    158       0.00000           0.074273            2.02107
    159       0.00000           0.074316            2.02224
    160       0.00000           0.078444            2.13456
    161       0.00000           0.079680            2.16821
    162       0.00000           0.084975            2.31230
    163       0.00000           0.087107            2.37029
    164       0.00000           0.088727            2.41438
    165       0.00000           0.089388            2.43236
    166       0.00000           0.095918            2.61006
    167       0.00000           0.099047            2.69521
    168       0.00000           0.099936            2.71939
    169       0.00000           0.101613            2.76503
    170       0.00000           0.106650            2.90210
    171       0.00000           0.112021            3.04824
    172       0.00000           0.115829            3.15186
    173       0.00000           0.117388            3.19428
    174       0.00000           0.121770            3.31352
    175       0.00000           0.122005            3.31992
    176       0.00000           0.123803            3.36884
    177       0.00000           0.128468            3.49579
    178       0.00000           0.133215            3.62495
    179       0.00000           0.134236            3.65276
    180       0.00000           0.143012            3.89156
    181       0.00000           0.145412            3.95686
    182       0.00000           0.148496            4.04078
    183       0.00000           0.149730            4.07435
    184       0.00000           0.153702            4.18245
    185       0.00000           0.157123            4.27554
    186       0.00000           0.159521            4.34080
    187       0.00000           0.162828            4.43077
    188       0.00000           0.167406            4.55534
    189       0.00000           0.168287            4.57932
    190       0.00000           0.172036            4.68135
    191       0.00000           0.174190            4.73996
    192       0.00000           0.177275            4.82390
    193       0.00000           0.178487            4.85687
    194       0.00000           0.179392            4.88151
    195       0.00000           0.184981            5.03358
    196       0.00000           0.188717            5.13525
    197       0.00000           0.189047            5.14422
    198       0.00000           0.192314            5.23312
    199       0.00000           0.192696            5.24353
    200       0.00000           0.196300            5.34160
    201       0.00000           0.201897            5.49389
    202       0.00000           0.204504            5.56485
    203       0.00000           0.210133            5.71800
    204       0.00000           0.211477            5.75459
    205       0.00000           0.213029            5.79681
    206       0.00000           0.215677            5.86888
    207       0.00000           0.216640            5.89506
    208       0.00000           0.217760            5.92556
    209       0.00000           0.222811            6.06299
    210       0.00000           0.227592            6.19308
    211       0.00000           0.232383            6.32346
    212       0.00000           0.233885            6.36435
    213       0.00000           0.237381            6.45948
    214       0.00000           0.237421            6.46055
    215       0.00000           0.239354            6.51316
    216       0.00000           0.247879            6.74514
    217       0.00000           0.251418            6.84143
    218       0.00000           0.253473            6.89736
    219       0.00000           0.257843            7.01626
    220       0.00000           0.267186            7.27051
    221       0.00000           0.273099            7.43140
    222       0.00000           0.275040            7.48423
    223       0.00000           0.276852            7.53353
    224       0.00000           0.283624            7.71779

  Highest occupied state (VBM) at     -9.57939869 eV
  | Occupation number:      2.00000000

  Lowest unoccupied state (CBM) at    -7.12417518 eV
  | Occupation number:      0.00000000

  Overall HOMO-LUMO gap:      2.45522351 eV.
  Calculating total energy contributions from superposition of free atom densities.

  Total energy components:
  | Sum of eigenvalues            :        -744.92047323 Ha      -20270.31741910 eV
  | XC energy correction          :        -175.65921192 Ha       -4779.93035652 eV
  | XC potential correction       :         225.64410473 Ha        6140.08849395 eV
  | Free-atom electrostatic energy:        -535.12152377 Ha      -14561.39753756 eV
  | Hartree energy correction     :           0.00000000 Ha           0.00000000 eV
  | Entropy correction            :           0.00000000 Ha           0.00000000 eV
  | ---------------------------
  | Total energy                  :       -1230.05710420 Ha      -33471.55681923 eV
  | Total energy, T -> 0          :       -1230.05710420 Ha      -33471.55681923 eV  <-- do not rely on this value for anything but (periodic) metals
  | Electronic free energy        :       -1230.05710420 Ha      -33471.55681923 eV

  Derived energy quantities:
  | Kinetic energy                :        1219.94473997 Ha       33196.38538810 eV
  | Electrostatic energy          :       -2274.34263225 Ha      -61888.01185081 eV
  | Energy correction for multipole
  | error in Hartree potential    :           0.00000000 Ha           0.00000000 eV
  | Sum of eigenvalues per atom                           :        -422.29827956 eV
  | Total energy (T->0) per atom                          :        -697.32410040 eV  <-- do not rely on this value for anything but (periodic) metals
  | Electronic free energy per atom                       :        -697.32410040 eV
  Initialize hartree_potential_storage
  Max. number of atoms included in rho_multipole:           48

  End scf initialization - timings             :  max(cpu_time)    wall_clock(cpu1)
  | Time for scf. initialization               :        8.170 s           8.228 s
  | Boundary condition initialization          :        0.000 s           0.004 s
  | Integration                                :        6.393 s           6.400 s
  | Solution of K.-S. eqns.                    :        0.235 s           0.254 s
  | Grid partitioning                          :        0.733 s           0.737 s
  | Preloading free-atom quantities on grid    :        0.014 s           0.017 s
  | Free-atom superposition energy             :        0.065 s           0.066 s
  | Total energy evaluation                    :        0.001 s           0.004 s

  Partial memory accounting:
  | Current value for overall tracked memory usage on task 0  :           4.886 MB
  | Peak value for overall tracked memory usage on task 0     :          30.852 MB after allocating zora_vector2
  | Largest tracked array allocation on task 0 so far         :           8.620 MB  when allocating hamiltonian_shell
  Note:  These values currently only include a subset of arrays which are explicitly tracked.
  The "true" memory usage will be greater.
------------------------------------------------------------

------------------------------------------------------------
          Begin self-consistency iteration #    1

  Date     :  20210620, Time     :  164807.143
------------------------------------------------------------
  Evaluating new KS density.
  Integration grid: deviation in total charge (<rho> - N_e) =   0.000000E+00
  Pulay mixing of updated and previous charge densities.

  Evaluating partitioned Hartree potential by multipole expansion.
  | Analytical far-field extrapolation by fixed multipoles:
  | Hartree multipole sum: apparent total charge =  -0.374146E-03
  Summing up the Hartree potential with load balancing.
  Time summed over all CPUs for potential: real work       25.073 s, elapsed       38.877 s
  | RMS charge density error from multipole expansion :   0.142186E-01

  Start compute_balanced_batch_distribution
  Done load balancing, time needed:      0.007 s
  Integrating Hamiltonian matrix: batch-based integration with load balancing
  Time summed over all CPUs for integration: real work      168.575 s, elapsed      191.041 s
  Time get_set_full_local_matrix_scalapack:     0.017999 s
  Start compute_balanced_batch_distribution
  Done load balancing, time needed:      0.007 s

  Updating Kohn-Sham eigenvalues and eigenvectors using ELSI and the ELPA eigensolver.
  Finished transformation to standard eigenproblem
  | Time :     0.017 s
  Starting ELPA eigensolver
  Finished solving standard eigenproblem
  | Time :     0.089 s
  Finished back-transformation of eigenvectors
  | Time :     0.004 s

  Obtaining occupation numbers and chemical potential using ELSI.
  | Chemical potential (Fermi level):    -5.69472890 eV
  Writing Kohn-Sham eigenvalues.

  State    Occupation    Eigenvalue [Ha]    Eigenvalue [eV]
      1       2.00000          -9.980446         -271.58174
      2       2.00000          -9.980438         -271.58153
      3       2.00000          -9.979710         -271.56174
      4       2.00000          -9.979700         -271.56146
      5       2.00000          -9.977315         -271.49655
      6       2.00000          -9.977313         -271.49649
      7       2.00000          -9.976047         -271.46205
      8       2.00000          -9.976047         -271.46205
      9       2.00000          -9.973545         -271.39397
     10       2.00000          -9.973545         -271.39397
     11       2.00000          -9.973055         -271.38063
     12       2.00000          -9.973055         -271.38063
     13       2.00000          -9.969072         -271.27226
     14       2.00000          -9.969072         -271.27226
     15       2.00000          -9.965858         -271.18479
     16       2.00000          -9.965858         -271.18479
     17       2.00000          -9.963575         -271.12267
     18       2.00000          -9.963575         -271.12267
     19       2.00000          -9.957141         -270.94759
     20       2.00000          -9.957141         -270.94759
     21       2.00000          -9.956489         -270.92984
     22       2.00000          -9.956488         -270.92984
     23       2.00000          -9.956091         -270.91901
     24       2.00000          -9.956090         -270.91901
     25       2.00000          -9.950978         -270.77988
     26       2.00000          -9.950978         -270.77988
     27       2.00000          -9.949558         -270.74125
     28       2.00000          -9.949558         -270.74125
     29       2.00000          -9.948975         -270.72538
     30       2.00000          -9.948975         -270.72538
     31       2.00000          -9.947060         -270.67328
     32       2.00000          -9.947060         -270.67328
     33       2.00000          -0.893436          -24.31162
     34       2.00000          -0.872189          -23.73347
     35       2.00000          -0.853245          -23.21796
     36       2.00000          -0.844672          -22.98468
     37       2.00000          -0.817080          -22.23389
     38       2.00000          -0.815388          -22.18784
     39       2.00000          -0.802626          -21.84056
     40       2.00000          -0.780559          -21.24010
     41       2.00000          -0.776042          -21.11718
     42       2.00000          -0.757766          -20.61985
     43       2.00000          -0.745547          -20.28737
     44       2.00000          -0.737761          -20.07550
     45       2.00000          -0.735546          -20.01522
     46       2.00000          -0.716570          -19.49887
     47       2.00000          -0.704963          -19.18303
     48       2.00000          -0.698789          -19.01501
     49       2.00000          -0.660726          -17.97927
     50       2.00000          -0.642143          -17.47359
     51       2.00000          -0.640091          -17.41776
     52       2.00000          -0.638029          -17.36166
     53       2.00000          -0.627050          -17.06289
     54       2.00000          -0.621424          -16.90981
     55       2.00000          -0.591091          -16.08440
     56       2.00000          -0.583441          -15.87624
     57       2.00000          -0.580684          -15.80122
     58       2.00000          -0.554462          -15.08769
     59       2.00000          -0.552428          -15.03232
     60       2.00000          -0.546023          -14.85803
     61       2.00000          -0.544036          -14.80396
     62       2.00000          -0.525590          -14.30203
     63       2.00000          -0.509370          -13.86066
     64       2.00000          -0.503965          -13.71359
     65       2.00000          -0.494545          -13.45724
     66       2.00000          -0.490577          -13.34927
     67       2.00000          -0.479513          -13.04821
     68       2.00000          -0.472213          -12.84958
     69       2.00000          -0.469441          -12.77414
     70       2.00000          -0.458330          -12.47179
     71       2.00000          -0.452353          -12.30916
     72       2.00000          -0.446953          -12.16222
     73       2.00000          -0.446227          -12.14245
     74       2.00000          -0.441042          -12.00136
     75       2.00000          -0.438105          -11.92144
     76       2.00000          -0.436455          -11.87655
     77       2.00000          -0.432097          -11.75797
     78       2.00000          -0.429185          -11.67873
     79       2.00000          -0.418317          -11.38298
     80       2.00000          -0.413268          -11.24560
     81       2.00000          -0.407121          -11.07833
     82       2.00000          -0.406106          -11.05071
     83       2.00000          -0.394414          -10.73255
     84       2.00000          -0.389256          -10.59220
     85       2.00000          -0.388735          -10.57803
     86       2.00000          -0.383816          -10.44417
     87       2.00000          -0.383283          -10.42966
     88       2.00000          -0.375530          -10.21868
     89       2.00000          -0.373663          -10.16789
     90       2.00000          -0.354721           -9.65246
     91       2.00000          -0.352591           -9.59450
     92       2.00000          -0.351498           -9.56475
     93       2.00000          -0.351315           -9.55978
     94       2.00000          -0.339130           -9.22820
     95       2.00000          -0.323872           -8.81300
     96       2.00000          -0.313225           -8.52329
     97       2.00000          -0.312446           -8.50209
     98       2.00000          -0.284479           -7.74107
     99       2.00000          -0.279165           -7.59647
    100       2.00000          -0.275965           -7.50940
    101       2.00000          -0.272252           -7.40835
    102       2.00000          -0.254768           -6.93260
    103       2.00000          -0.235302           -6.40289
    104       2.00000          -0.226372           -6.15990
    105       0.00000          -0.136070           -3.70266
    106       0.00000          -0.130674           -3.55582
    107       0.00000          -0.123071           -3.34893
    108       0.00000          -0.100665           -2.73925
    109       0.00000          -0.093460           -2.54318
    110       0.00000          -0.087159           -2.37173
    111       0.00000          -0.074370           -2.02371
    112       0.00000          -0.050548           -1.37548
    113       0.00000          -0.048597           -1.32238
    114       0.00000          -0.030130           -0.81989
    115       0.00000          -0.026785           -0.72887
    116       0.00000          -0.025616           -0.69705
    117       0.00000          -0.018314           -0.49834
    118       0.00000          -0.012768           -0.34744
    119       0.00000          -0.007395           -0.20124
    120       0.00000           0.000138            0.00377
    121       0.00000           0.002621            0.07133
    122       0.00000           0.005645            0.15360
    123       0.00000           0.011264            0.30652
    124       0.00000           0.015141            0.41200
    125       0.00000           0.019855            0.54028
    126       0.00000           0.034231            0.93147
    127       0.00000           0.039523            1.07547
    128       0.00000           0.049873            1.35711
    129       0.00000           0.055394            1.50735
    130       0.00000           0.058167            1.58280
    131       0.00000           0.061646            1.67747
    132       0.00000           0.066343            1.80529
    133       0.00000           0.068701            1.86945
    134       0.00000           0.077459            2.10777
    135       0.00000           0.080653            2.19468
    136       0.00000           0.087813            2.38952
    137       0.00000           0.089571            2.43736
    138       0.00000           0.095645            2.60262
    139       0.00000           0.097557            2.65467
    140       0.00000           0.099202            2.69942
    141       0.00000           0.100280            2.72876
    142       0.00000           0.104818            2.85224
    143       0.00000           0.108621            2.95572
    144       0.00000           0.109600            2.98237
    145       0.00000           0.113972            3.10134
    146       0.00000           0.119896            3.26254
    147       0.00000           0.121443            3.30464
    148       0.00000           0.124363            3.38409
    149       0.00000           0.124816            3.39641
    150       0.00000           0.125424            3.41296
    151       0.00000           0.126480            3.44170
    152       0.00000           0.126842            3.45154
    153       0.00000           0.132062            3.59359
    154       0.00000           0.140482            3.82272
    155       0.00000           0.142143            3.86791
    156       0.00000           0.143023            3.89185
    157       0.00000           0.145992            3.97264
    158       0.00000           0.146965            3.99913
    159       0.00000           0.151318            4.11757
    160       0.00000           0.152423            4.14764
    161       0.00000           0.152853            4.15934
    162       0.00000           0.152955            4.16212
    163       0.00000           0.159577            4.34232
    164       0.00000           0.163822            4.45782
    165       0.00000           0.166517            4.53116
    166       0.00000           0.170687            4.64462
    167       0.00000           0.171922            4.67824
    168       0.00000           0.176176            4.79401
    169       0.00000           0.177456            4.82881
    170       0.00000           0.183195            4.98498
    171       0.00000           0.183584            4.99558
    172       0.00000           0.183882            5.00368
    173       0.00000           0.188401            5.12664
    174       0.00000           0.194410            5.29018
    175       0.00000           0.196288            5.34127
    176       0.00000           0.196570            5.34896
    177       0.00000           0.200387            5.45280
    178       0.00000           0.206895            5.62991
    179       0.00000           0.207313            5.64128
    180       0.00000           0.210008            5.71461
    181       0.00000           0.210380            5.72474
    182       0.00000           0.215043            5.85162
    183       0.00000           0.222788            6.06238
    184       0.00000           0.223064            6.06988
    185       0.00000           0.227821            6.19933
    186       0.00000           0.227868            6.20059
    187       0.00000           0.230778            6.27979
    188       0.00000           0.236352            6.43147
    189       0.00000           0.236871            6.44559
    190       0.00000           0.237109            6.45206
    191       0.00000           0.243660            6.63031
    192       0.00000           0.245154            6.67098
    193       0.00000           0.252379            6.86758
    194       0.00000           0.254259            6.91873
    195       0.00000           0.255235            6.94530
    196       0.00000           0.259166            7.05226
    197       0.00000           0.260290            7.08286
    198       0.00000           0.269442            7.33190
    199       0.00000           0.275870            7.50681
    200       0.00000           0.278236            7.57120
    201       0.00000           0.282841            7.69650
    202       0.00000           0.283773            7.72184
    203       0.00000           0.286695            7.80137
    204       0.00000           0.286724            7.80214
    205       0.00000           0.287030            7.81050
    206       0.00000           0.291738            7.93860
    207       0.00000           0.294113            8.00322
    208       0.00000           0.296246            8.06126
    209       0.00000           0.301166            8.19515
    210       0.00000           0.306729            8.34653
    211       0.00000           0.316034            8.59973
    212       0.00000           0.320205            8.71323
    213       0.00000           0.322862            8.78551
    214       0.00000           0.326064            8.87265
    215       0.00000           0.330556            8.99488
    216       0.00000           0.336742            9.16321
    217       0.00000           0.341362            9.28893
    218       0.00000           0.341799            9.30082
    219       0.00000           0.343755            9.35406
    220       0.00000           0.346087            9.41750
    221       0.00000           0.348429            9.48123
    222       0.00000           0.348445            9.48168
    223       0.00000           0.353459            9.61810
    224       0.00000           0.355997            9.68716

  Highest occupied state (VBM) at     -6.15990101 eV
  | Occupation number:      2.00000000

[...]
     54       2.00000          -0.562382          -15.30318
     55       2.00000          -0.530845          -14.44503
     56       2.00000          -0.522875          -14.22816
     57       2.00000          -0.520275          -14.15741
     58       2.00000          -0.494633          -13.45965
     59       2.00000          -0.493340          -13.42447
     60       2.00000          -0.485884          -13.22158
     61       2.00000          -0.482599          -13.13219
     62       2.00000          -0.463059          -12.60047
     63       2.00000          -0.449682          -12.23647
     64       2.00000          -0.443460          -12.06715
     65       2.00000          -0.432070          -11.75723
     66       2.00000          -0.429466          -11.68637
     67       2.00000          -0.416808          -11.34191
     68       2.00000          -0.411958          -11.20995
     69       2.00000          -0.405956          -11.04661
     70       2.00000          -0.398363          -10.84000
     71       2.00000          -0.397851          -10.82608
     72       2.00000          -0.391204          -10.64521
     73       2.00000          -0.386330          -10.51257
     74       2.00000          -0.385020          -10.47693
     75       2.00000          -0.377402          -10.26962
     76       2.00000          -0.375234          -10.21063
     77       2.00000          -0.373914          -10.17471
     78       2.00000          -0.369930          -10.06630
     79       2.00000          -0.367194           -9.99187
     80       2.00000          -0.354620           -9.64971
     81       2.00000          -0.354523           -9.64707
     82       2.00000          -0.345086           -9.39027
     83       2.00000          -0.343548           -9.34842
     84       2.00000          -0.343012           -9.33382
     85       2.00000          -0.325503           -8.85739
     86       2.00000          -0.325296           -8.85175
     87       2.00000          -0.320269           -8.71497
     88       2.00000          -0.313338           -8.52635
     89       2.00000          -0.311640           -8.48017
     90       2.00000          -0.310915           -8.46043
     91       2.00000          -0.310085           -8.43783
     92       2.00000          -0.298146           -8.11296
     93       2.00000          -0.289741           -7.88425
     94       2.00000          -0.288976           -7.86344
     95       2.00000          -0.272542           -7.41624
     96       2.00000          -0.271420           -7.38572
     97       2.00000          -0.260275           -7.08244
     98       2.00000          -0.242281           -6.59281
     99       2.00000          -0.237412           -6.46032
    100       2.00000          -0.233432           -6.35201
    101       2.00000          -0.230187           -6.26370
    102       2.00000          -0.212389           -5.77940
    103       2.00000          -0.193180           -5.25669
    104       2.00000          -0.183296           -4.98773
    105       0.00000          -0.092701           -2.52252
    106       0.00000          -0.086878           -2.36408
    107       0.00000          -0.081175           -2.20887
    108       0.00000          -0.057676           -1.56944
    109       0.00000          -0.051702           -1.40688
    110       0.00000          -0.044326           -1.20617
    111       0.00000          -0.029983           -0.81588
    112       0.00000          -0.007355           -0.20015
    113       0.00000          -0.006678           -0.18173
    114       0.00000          -0.006458           -0.17574
    115       0.00000          -0.003342           -0.09095
    116       0.00000          -0.001641           -0.04466
    117       0.00000           0.006257            0.17025
    118       0.00000           0.008959            0.24380
    119       0.00000           0.022527            0.61300
    120       0.00000           0.024322            0.66183
    121       0.00000           0.034562            0.94048
    122       0.00000           0.038732            1.05396
    123       0.00000           0.041453            1.12800
    124       0.00000           0.049771            1.35434
    125       0.00000           0.056870            1.54752
    126       0.00000           0.058338            1.58745
    127       0.00000           0.062321            1.69584
    128       0.00000           0.071779            1.95322
    129       0.00000           0.080850            2.20004
    130       0.00000           0.080933            2.20231
    131       0.00000           0.089136            2.42552
    132       0.00000           0.090167            2.45357
    133       0.00000           0.101284            2.75607
    134       0.00000           0.105418            2.86856
    135       0.00000           0.107662            2.92962
    136       0.00000           0.115528            3.14369
    137       0.00000           0.115672            3.14760
    138       0.00000           0.116195            3.16182
    139       0.00000           0.118488            3.22423
    140       0.00000           0.122596            3.33601
    141       0.00000           0.123460            3.35952
    142       0.00000           0.130528            3.55186
    143       0.00000           0.137440            3.73994
    144       0.00000           0.139807            3.80435
    145       0.00000           0.144401            3.92934
    146       0.00000           0.145019            3.94616
    147       0.00000           0.151161            4.11331
    148       0.00000           0.153964            4.18957
    149       0.00000           0.158248            4.30614
    150       0.00000           0.162748            4.42861
    151       0.00000           0.164173            4.46739
    152       0.00000           0.165636            4.50719
    153       0.00000           0.167573            4.55989
    154       0.00000           0.169552            4.61375
    155       0.00000           0.171939            4.67870
    156       0.00000           0.173782            4.72885
    157       0.00000           0.174418            4.74615
    158       0.00000           0.182553            4.96752
    159       0.00000           0.183193            4.98495
    160       0.00000           0.185843            5.05706
    161       0.00000           0.189345            5.15233
    162       0.00000           0.189845            5.16594
    163       0.00000           0.195230            5.31249
    164       0.00000           0.196410            5.34458
    165       0.00000           0.200816            5.46449
    166       0.00000           0.202829            5.51925
    167       0.00000           0.205655            5.59615
    168       0.00000           0.206873            5.62929
    169       0.00000           0.210075            5.71643
    170       0.00000           0.211080            5.74379
    171       0.00000           0.218813            5.95420
    172       0.00000           0.221473            6.02658
    173       0.00000           0.226125            6.15316
    174       0.00000           0.227851            6.20015
    175       0.00000           0.229784            6.25274
    176       0.00000           0.232104            6.31588
    177       0.00000           0.233821            6.36259
    178       0.00000           0.235471            6.40749
    179       0.00000           0.241967            6.58425
    180       0.00000           0.244592            6.65568
    181       0.00000           0.244670            6.65782
    182       0.00000           0.249580            6.79142
    183       0.00000           0.250064            6.80460
    184       0.00000           0.257455            7.00572
    185       0.00000           0.260085            7.07727
    186       0.00000           0.260140            7.07877
    187       0.00000           0.262467            7.14210
    188       0.00000           0.264975            7.21034
    189       0.00000           0.265346            7.22042
    190       0.00000           0.267124            7.26882
    191       0.00000           0.276934            7.53575
    192       0.00000           0.278369            7.57479
    193       0.00000           0.287031            7.81052
    194       0.00000           0.287644            7.82718
    195       0.00000           0.289769            7.88501
    196       0.00000           0.292521            7.95990
    197       0.00000           0.295743            8.04758
    198       0.00000           0.302599            8.23414
    199       0.00000           0.303931            8.27040
    200       0.00000           0.310822            8.45790
    201       0.00000           0.313186            8.52222
    202       0.00000           0.315773            8.59263
    203       0.00000           0.316148            8.60281
    204       0.00000           0.316302            8.60703
    205       0.00000           0.317948            8.65180
    206       0.00000           0.321851            8.75802
    207       0.00000           0.322968            8.78842
    208       0.00000           0.329749            8.97293
    209       0.00000           0.336198            9.14843
    210       0.00000           0.344256            9.36768
    211       0.00000           0.348587            9.48553
    212       0.00000           0.352100            9.58114
    213       0.00000           0.358872            9.76541
    214       0.00000           0.367387            9.99712
    215       0.00000           0.368220           10.01977
    216       0.00000           0.370357           10.07791
    217       0.00000           0.372932           10.14799
    218       0.00000           0.374257           10.18406
    219       0.00000           0.375673           10.22259
    220       0.00000           0.377837           10.28148
    221       0.00000           0.381217           10.37345
    222       0.00000           0.385888           10.50055
    223       0.00000           0.389450           10.59748
    224       0.00000           0.393685           10.71271

  Highest occupied state (VBM) at     -4.98772885 eV
  | Occupation number:      2.00000000

  Lowest unoccupied state (CBM) at    -2.52252452 eV
  | Occupation number:      0.00000000

  Overall HOMO-LUMO gap:      2.46520433 eV.

  Total energy components:
  | Sum of eigenvalues            :        -699.94472014 Ha      -19046.46490834 eV
  | XC energy correction          :        -178.73246937 Ha       -4863.55794660 eV
  | XC potential correction       :         229.61688171 Ha        6248.19325583 eV
  | Free-atom electrostatic energy:        -535.12152377 Ha      -14561.39753756 eV
  | Hartree energy correction     :         -44.44076412 Ha       -1209.29471996 eV
  | Entropy correction            :           0.00000000 Ha           0.00000000 eV
  | ---------------------------
  | Total energy                  :       -1228.62259569 Ha      -33432.52185663 eV
  | Total energy, T -> 0          :       -1228.62259569 Ha      -33432.52185663 eV  <-- do not rely on this value for anything but (periodic) metals
  | Electronic free energy        :       -1228.62259569 Ha      -33432.52185663 eV

  Derived energy quantities:
  | Kinetic energy                :        1225.97903732 Ha       33360.58697356 eV
  | Electrostatic energy          :       -2275.86916364 Ha      -61929.55088359 eV
  | Energy correction for multipole
  | error in Hartree potential    :          -0.15787312 Ha          -4.29594604 eV
  | Sum of eigenvalues per atom                           :        -396.80135226 eV
  | Total energy (T->0) per atom                          :        -696.51087201 eV  <-- do not rely on this value for anything but (periodic) metals
  | Electronic free energy per atom                       :        -696.51087201 eV
  End evaluation of scaled ZORA corrections.
  | Time for scaled ZORA corrections           :        5.919 s           5.930 s
------------------------------------------------------------

  Energy and forces in a compact form:
  | Total energy uncorrected      :         -0.334325218566319E+05 eV
  | Total energy corrected        :         -0.334325218566319E+05 eV  <-- do not rely on this value for anything but (periodic) metals
  | Electronic free energy        :         -0.334325218566319E+05 eV

  ------------------------------------ 
  Start decomposition of the XC Energy 
  ------------------------------------ 
  X and C from original XC functional choice 
  Hartree-Fock Energy :          0.000000000 Ha              0.000000000 eV
  X Energy            :       -171.697435887 Ha          -4672.124945579 eV
  C Energy            :         -7.035033481 Ha           -191.433001024 eV
  Total XC Energy     :       -178.732469368 Ha          -4863.557946602 eV
  ------------------------------------ 
  LDA X and C from self-consistent density 
  X Energy LDA        :       -155.576086098 Ha          -4233.440697814 eV
  C Energy LDA        :        -13.499501472 Ha           -367.340125110 eV
  ------------------------------------ 
  End decomposition of the XC Energy 
  ------------------------------------ 

------------------------------------------------------------

------------------------------------------------------------------------------
  Final output of selected total energy values:

  The following output summarizes some interesting total energy values
  at the end of a run (AFTER all relaxation, molecular dynamics, etc.).

  | Total energy of the DFT / Hartree-Fock s.c.f. calculation      :         -33432.521856632 eV
  | Final zero-broadening corrected energy (caution - metals only) :         -33432.521856632 eV
  | For reference only, the value of 1 Hartree used in FHI-aims is :             27.211384500 eV

  Before relying on these values, please be sure to understand exactly which
  total energy value is referred to by a given number. Different objects may
  all carry the same name 'total energy'. Definitions:

  Total energy of the DFT / Hartree-Fock s.c.f. calculation:
  | Note that this energy does not include ANY quantities calculated after the
  | s.c.f. cycle, in particular not ANY RPA, MP2, etc. many-body perturbation terms.
  | Scalar relativistic effects have been included in the 'scaled ZORA' approximation.

  Final zero-broadening corrected energy:
  | For metallic systems only, a broadening of the occupation numbers at the Fermi
  | level can be extrapolated back to zero broadening by an electron-gas inspired
  | formula. For all systems that are not real metals, this value can be
  | meaningless and should be avoided.

------------------------------------------------------------------------------
  Methods described in the following list of references were used in this FHI-aims run.
  If you publish the results, please make sure to cite these reference if they apply.
  FHI-aims is an academic code, and for our developers (often, Ph.D. students
  and postdocs), scientific credit in the community is essential.
  Thank you for helping us!

  For any use of FHI-aims, please cite:

    Volker Blum, Ralf Gehrke, Felix Hanke, Paula Havu, Ville Havu,
    Xinguo Ren, Karsten Reuter, and Matthias Scheffler
    'Ab initio molecular simulations with numeric atom-centered orbitals'
    Computer Physics Communications 180, 2175-2196 (2009)
    http://dx.doi.org/10.1016/j.cpc.2009.06.022


  The scalable eigensolver library ELPA was used in your run.
  ELPA is essential especially for large systems on hundreds or thousands of CPUs.
  For ELPA, please cite:

    Andreas Marek, Volker Blum, Rainer Johanni, Ville Havu, Bruno Lang,
    Thomas Auckenthaler, Alexander Heinecke, Hans-Joachim Bungartz, and Hermann Lederer,
    'The ELPA Library - Scalable Parallel Eigenvalue Solutions
    for Electronic Structure Theory and Computational Science'
    The Journal of Physics: Condensed Matter 26, 213201 (2014).
    http://dx.doi.org/10.1088/0953-8984/26/21/213201


  The ELSI infrastructure was used in your run to solve the Kohn-Sham electronic structure.
  Please check out http://elsi-interchange.org to learn more.
  If scalability is important for your project, please acknowledge ELSI by citing:

    V. W-z. Yu, F. Corsetti, A. Garcia, W. P. Huhn, M. Jacquelin, W. Jia,
    B. Lange, L. Lin, J. Lu, W. Mi, A. Seifitokaldani, A. Vazquez-Mayagoitia,
    C. Yang, H. Yang, and V. Blum
    'ELSI: A unified software interface for Kohn-Sham electronic structure solvers'
    Computer Physics Communications 222, 267-285 (2018).
    http://dx.doi.org/10.1016/j.cpc.2017.09.007


  For the real-space grid partitioning and parallelization used in this calculation, please cite:

    Ville Havu, Volker Blum, Paula Havu, and Matthias Scheffler,
    'Efficient O(N) integration for all-electron electronic structure calculation'
    'using numerically tabulated basis functions'
    Journal of Computational Physics 228, 8367-8379 (2009).
    http://dx.doi.org/10.1016/j.jcp.2009.08.008

  Of course, there are many other important community references, e.g., those cited in the
  above references. Our list is limited to references that describe implementations in the
  FHI-aims code. The reason is purely practical (length of this list) - please credit others as well.

------------------------------------------------------------
          Leaving FHI-aims.
          Date     :  20210620, Time     :  164937.724

          Computational steps:
          | Number of self-consistency cycles          :           16
          | Number of SCF (re)initializations          :            1

          Detailed time accounting                     :  max(cpu_time)    wall_clock(cpu1)
          | Total time                                 :       99.035 s          99.220 s
          | Preparation time                           :        0.193 s           0.202 s
          | Boundary condition initalization           :        0.000 s           0.004 s
          | Grid partitioning                          :        0.733 s           0.737 s
          | Preloading free-atom quantities on grid    :        0.014 s           0.017 s
          | Free-atom superposition energy             :        0.065 s           0.066 s
          | Total time for integrations                :       57.850 s          57.857 s
          | Total time for solution of K.-S. equations :        2.706 s           2.734 s
          | Total time for density update              :       21.717 s          21.673 s
          | Total time for mixing                      :        0.124 s           0.128 s
          | Total time for Hartree multipole update    :        0.144 s           0.148 s
          | Total time for Hartree multipole sum       :        8.558 s           8.563 s
          | Total time for total energy evaluation     :        0.010 s           0.030 s
          | Total time for scaled ZORA corrections     :        5.919 s           5.930 s

          Partial memory accounting:
          | Residual value for overall tracked memory usage across tasks :     0.000000 MB (should be 0.000000 MB)
          | Peak values for overall tracked memory usage (after allocating zora_vector2):
          |   Minimum:       29.154 MB (on task 47)
          |   Maximum:       36.735 MB (on task 27)
          |   Average:       33.118 MB
          | Largest tracked array allocation (hamiltonian_shell):
          |   Minimum:        8.620 MB (on task  1)
          |   Maximum:        8.620 MB (on task  1)
          |   Average:        8.620 MB
          Note:  These values currently only include a subset of arrays which are explicitly tracked.
          The "true" memory usage will be greater.

          Have a nice day.
------------------------------------------------------------
