  MPI-parallelism will be employed.
------------------------------------------------------------
          Invoking FHI-aims ...
          Version 180607
          Git rev. (modified): 6724847 Fix JSON memory corruption in scf_solver
          Compiled on 2018/06/27 at 16:00:31 on host coe.psc.edu.

          When using FHI-aims, please cite the following reference:

          Volker Blum, Ralf Gehrke, Felix Hanke, Paula Havu,
          Ville Havu, Xinguo Ren, Karsten Reuter, and Matthias Scheffler,
          'Ab Initio Molecular Simulations with Numeric Atom-Centered Orbitals',
          Computer Physics Communications 180, 2175-2196 (2009)

          For any questions about FHI-aims, please visit the aimsclub website
          with its forums and wiki. Contributions to both the forums and the
          wiki are warmly encouraged - they are for you, and everyone is welcome there.

------------------------------------------------------------



  Date     :  20210620, Time     :  174543.683
  Time zero on CPU 1             :   0.220062000000000E+00  s.
  Internal wall clock time zero  :           393443143.683  s.

  FHI-aims created a unique identifier for this run for later identification
  aims_uuid : C960660C-50F5-43FB-A72D-803B26CC302B

  Using       56 parallel tasks.
  Task        0 on host d001 reporting.
  Task        1 on host d001 reporting.
  Task        2 on host d001 reporting.
  Task        3 on host d001 reporting.
  Task        4 on host d001 reporting.
  Task        5 on host d001 reporting.
  Task        6 on host d001 reporting.
  Task        7 on host d001 reporting.
  Task        8 on host d001 reporting.
  Task        9 on host d001 reporting.
  Task       10 on host d001 reporting.
  Task       11 on host d001 reporting.
  Task       12 on host d001 reporting.
  Task       13 on host d001 reporting.
  Task       14 on host d001 reporting.
  Task       15 on host d001 reporting.
  Task       16 on host d001 reporting.
  Task       17 on host d001 reporting.
  Task       18 on host d001 reporting.
  Task       19 on host d001 reporting.
  Task       20 on host d001 reporting.
  Task       21 on host d001 reporting.
  Task       22 on host d001 reporting.
  Task       23 on host d001 reporting.
  Task       24 on host d001 reporting.
  Task       25 on host d001 reporting.
  Task       26 on host d001 reporting.
  Task       27 on host d001 reporting.
  Task       28 on host d001 reporting.
  Task       29 on host d001 reporting.
  Task       30 on host d001 reporting.
  Task       31 on host d001 reporting.
  Task       32 on host d001 reporting.
  Task       33 on host d001 reporting.
  Task       34 on host d001 reporting.
  Task       35 on host d001 reporting.
  Task       36 on host d001 reporting.
  Task       37 on host d001 reporting.
  Task       38 on host d001 reporting.
  Task       39 on host d001 reporting.
  Task       40 on host d001 reporting.
  Task       41 on host d001 reporting.
  Task       42 on host d001 reporting.
  Task       43 on host d001 reporting.
  Task       44 on host d001 reporting.
  Task       45 on host d001 reporting.
  Task       46 on host d001 reporting.
  Task       47 on host d001 reporting.
  Task       48 on host d001 reporting.
  Task       49 on host d001 reporting.
  Task       50 on host d001 reporting.
  Task       51 on host d001 reporting.
  Task       52 on host d001 reporting.
  Task       53 on host d001 reporting.
  Task       54 on host d001 reporting.
  Task       55 on host d001 reporting.

  Performing system and environment tests:
  *** Environment variable OMP_NUM_THREADS is not set
  *** For performance reasons you might want to set it to 1
  | Stacksize not measured: no C compiler
  | Checking for scalapack...
  | Testing pdtran()...
  | All pdtran() tests passed.

  Obtaining array dimensions for all initial allocations:
  
  -----------------------------------------------------------------------
  Parsing control.in (first pass over file, find array dimensions only).
  The contents of control.in will be repeated verbatim below
  unless switched off by setting 'verbatim_writeout .false.' .
  in the first line of control.in .
  -----------------------------------------------------------------------
  
  #===============================================================================
  # FHI-aims file: ./Runs/es/control.in
  # Created using the Atomic Simulation Environment (ASE)
  # Mon Jan 13 16:04:38 2020
  #===============================================================================
  xc                                 pbe
  relativistic                       zora scalar 1e-12
  occupation_type                    gaussian 0.0001
  load_balancing                     .true.
  KS_method                          scalapack_fast
  mixer                              pulay
  n_max_pulay                        5
  charge_mix_param                   0.4
  sc_accuracy_etot                   1e-6
  sc_accuracy_eev                    1e-4
  sc_accuracy_rho                    1e-6
  sc_iter_limit                      100
  prodbas_threshold                  1e-4
  basis_threshold                    1e-5
  override_illconditioning           .true.
  use_logsbt                         .true.
  spin                               none
  charge                             0
  #===============================================================================
  
  ################################################################################
  #
  #  FHI-aims code project
  # Volker Blum, Fritz Haber Institute Berlin, 2009
  #
  #  Suggested "tight" defaults for H atom (to be pasted into control.in file)
  #
  ################################################################################
    species        H
  #     global species definitions
      nucleus             1
      mass                1.00794
  #
      l_hartree           6
  #
      cut_pot             4.0  2.0  1.0
      basis_dep_cutoff    1e-4
  #
      radial_base         24 7.0
      radial_multiplier   2
      angular_grids       specified
        division   0.1930   50
        division   0.3175  110
        division   0.4293  194
        division   0.5066  302
        division   0.5626  434
  #      division   0.5922  590
  #      division   0.6227  974
  #      division   0.6868 1202
  #      outer_grid  770
        outer_grid  434
  ################################################################################
  #
  #  Definition of "minimal" basis
  #
  ################################################################################
  #     valence basis states
      valence      1  s   1.
  #     ion occupancy
      ion_occ      1  s   0.5
  ################################################################################
  #
  #  Suggested additional basis functions. For production calculations,
  #  uncomment them one after another (the most important basis functions are
  #  listed first).
  #
  #  Basis constructed for dimers: 0.5 A, 0.7 A, 1.0 A, 1.5 A, 2.5 A
  #
  ################################################################################
  #  "First tier" - improvements: -1014.90 meV to -62.69 meV
       hydro 2 s 2.1
       hydro 2 p 3.5
  #  "Second tier" - improvements: -12.89 meV to -1.83 meV
       hydro 1 s 0.85
       hydro 2 p 3.7
       hydro 2 s 1.2
       hydro 3 d 7
  #  "Third tier" - improvements: -0.25 meV to -0.12 meV
  #     hydro 4 f 11.2
  #     hydro 3 p 4.8
  #     hydro 4 d 9
  #     hydro 3 s 3.2
  ################################################################################
  #
  # For methods that use the localized form of the "resolution of identity" for
  # the two-electron Coulomb operator (RI_method LVL), particularly Hartree-Fock and
  # hybrid density functional calculations, the highest accuracy can be obtained by
  # uncommenting the line beginning with "for_aux"  below, thus adding an extra g radial
  # function to the construction of the product basis set for the expansion.
  # See Ref. New J. Phys. 17, 093020 (2015) for more information, particularly Figs. 1 and 6.
  #
  ################################################################################
  #
  # for_aux hydro 5 g 6.0
  ################################################################################
  #
  #  FHI-aims code project
  # Volker Blum, Fritz Haber Institute Berlin, 2009
  #
  #  Suggested "tight" defaults for C atom (to be pasted into control.in file)
  #
  ################################################################################
    species        C
  #     global species definitions
      nucleus             6
      mass                12.0107
  #
      l_hartree           6
  #
      cut_pot             4.0  2.0  1.0
      basis_dep_cutoff    1e-4
  #
      radial_base         34 7.0
      radial_multiplier   2
      angular_grids specified
        division   0.2187   50
        division   0.4416  110
        division   0.6335  194
        division   0.7727  302
        division   0.8772  434
  #      division   0.9334  590
  #      division   0.9924  770
  #      division   1.0230  974
  #      division   1.5020 1202
  #     outer_grid  974
        outer_grid  434
  ################################################################################
  #
  #  Definition of "minimal" basis
  #
  ################################################################################
  #     valence basis states
      valence      2  s   2.
      valence      2  p   2.
  #     ion occupancy
      ion_occ      2  s   1.
      ion_occ      2  p   1.
  ################################################################################
  #
  #  Suggested additional basis functions. For production calculations,
  #  uncomment them one after another (the most important basis functions are
  #  listed first).
  #
  #  Constructed for dimers: 1.0 A, 1.25 A, 1.5 A, 2.0 A, 3.0 A
  #
  ################################################################################
  #  "First tier" - improvements: -1214.57 meV to -155.61 meV
       hydro 2 p 1.7
       hydro 3 d 6
       hydro 2 s 4.9
  #  "Second tier" - improvements: -67.75 meV to -5.23 meV
       hydro 4 f 9.8
       hydro 3 p 5.2
       hydro 3 s 4.3
       hydro 5 g 14.4
       hydro 3 d 6.2
  #  "Third tier" - improvements: -2.43 meV to -0.60 meV
  #     hydro 2 p 5.6
  #     hydro 2 s 1.4
  #     hydro 3 d 4.9
  #     hydro 4 f 11.2
  #  "Fourth tier" - improvements: -0.39 meV to -0.18 meV
  #     hydro 2 p 2.1
  #     hydro 5 g 16.4
  #     hydro 4 d 13.2
  #     hydro 3 s 13.6
  #     hydro 4 f 17.6
  #  Further basis functions - improvements: -0.08 meV and below
  #     hydro 3 s 2
  #     hydro 3 p 6
  #     hydro 4 d 20
  ################################################################################
  #
  # For methods that use the localized form of the "resolution of identity" for
  # the two-electron Coulomb operator (RI_method LVL), particularly Hartree-Fock and
  # hybrid density functional calculations, the highest accuracy can be obtained by
  # uncommenting the line beginning with "for_aux"  below, thus adding an extra g radial
  # function to the construction of the product basis set for the expansion.
  # See Ref. New J. Phys. 17, 093020 (2015) for more information, particularly Figs. 1 and 6.
  #
  ################################################################################
  #
  # for_aux hydro 5 g 6.0
  
  -----------------------------------------------------------------------
  Completed first pass over input file control.in .
  -----------------------------------------------------------------------
  
  
  -----------------------------------------------------------------------
  Parsing geometry.in (first pass over file, find array dimensions only).
  The contents of geometry.in will be repeated verbatim below
  unless switched off by setting 'verbatim_writeout .false.' .
  in the first line of geometry.in .
  -----------------------------------------------------------------------
  
  #=======================================================
  # FHI-aims file: geometry.in
  # Created using the Atomic Simulation Environment (ASE)
  # Sun Jun 20 15:47:02 2021
  #=======================================================
  atom 37.1399299999999997 24.9265480000000004 42.8549980000000019 H
  atom 37.8391269999999977 24.3902380000000001 42.2145140000000012 C
  atom 37.4984839999999977 24.1439909999999998 40.8792919999999995 C
  atom 39.0685169999999999 23.9465390000000014 42.7165430000000015 C
  atom 36.5477320000000034 24.5198719999999994 40.5097269999999980 H
  atom 38.3859220000000008 23.4531309999999991 40.0460989999999981 C
  atom 39.9559560000000005 23.2556790000000007 41.8833500000000001 C
  atom 39.3333050000000028 24.1223439999999982 43.7575939999999974 H
  atom 38.0206000000000017 23.1896349999999991 38.6157550000000001 C
  atom 39.6153130000000004 23.0094320000000003 40.5481279999999984 C
  atom 40.9163259999999980 22.9096650000000004 42.2618980000000022 H
  atom 36.6981150000000014 23.3558790000000016 38.1894700000000000 C
  atom 39.0024429999999995 22.7771450000000009 37.7068179999999984 C
  atom 40.3027140000000017 22.4430939999999985 39.9266689999999969 H
  atom 36.3574709999999968 23.1096320000000013 36.8542479999999983 C
  atom 35.9167160000000010 23.6459019999999995 38.8857939999999971 H
  atom 38.6604910000000004 22.5299830000000014 36.3715949999999992 C
  atom 40.0397069999999999 22.6753430000000016 38.0089159999999993 H
  atom 35.3203680000000020 23.2088919999999987 36.5459839999999971 H
  atom 37.3380050000000026 22.6962270000000004 35.9453109999999967 C
  atom 39.4384119999999996 22.2405250000000017 35.6706920000000025 H
  atom 36.9726830000000035 22.4327310000000004 34.5149669999999986 C
  atom 35.8134919999999966 23.0003740000000008 33.9724229999999991 C
  atom 37.7899230000000017 21.6179279999999991 33.7222890000000035 C
  atom 35.4715399999999974 22.7532120000000013 32.6372009999999975 C
  atom 35.1863889999999984 23.6633129999999987 34.5632319999999993 H
  atom 37.4492789999999971 21.3716809999999988 32.3870670000000018 C
  atom 38.6812249999999977 21.1475359999999988 34.1320150000000027 H
  atom 34.5812140000000028 23.2261929999999985 32.2295879999999997 H
  atom 36.2900879999999972 21.9393230000000017 31.8445220000000013 C
  atom 38.0788909999999987 20.7084520000000012 31.7992519999999992 H
  atom 35.9247659999999982 21.6758279999999992 30.4141790000000007 C
  atom 34.6204040000000006 21.9187280000000015 29.9685179999999995 C
  atom 36.8884839999999983 21.1866799999999991 29.5246180000000003 C
  atom 34.2784529999999990 21.6715659999999986 28.6332950000000004 C
  atom 33.8559270000000012 22.2789159999999988 30.6503970000000017 H
  atom 36.5465329999999966 20.9395190000000007 28.1893959999999986 C
  atom 37.9127620000000007 21.0165779999999991 29.8450360000000003 H
  atom 33.2603679999999997 21.8542340000000017 28.2956140000000005 H
  atom 35.2421709999999990 21.1824189999999994 27.7437339999999999 C
  atom 37.3044110000000018 20.5700210000000006 27.4997660000000010 H
  atom 34.9801539999999989 21.0039219999999993 26.7019790000000015 H
  
  -----------------------------------------------------------------------
  Completed first pass over input file geometry.in .
  -----------------------------------------------------------------------
  

  Basic array size parameters:
  | Number of species                 :        2
  | Number of atoms                   :       42
  | Max. basis fn. angular momentum   :        4
  | Max. atomic/ionic basis occupied n:        2
  | Max. number of basis fn. types    :        2
  | Max. radial fns per species/type  :        8
  | Max. logarithmic grid size        :     1277
  | Max. radial integration grid size :       69
  | Max. angular integration grid size:      434
  | Max. angular grid division number :        8
  | Radial grid for Hartree potential :     1277
  | Number of spin channels           :        1

------------------------------------------------------------
          Reading file control.in.
------------------------------------------------------------
  XC: Using PBE gradient-corrected functionals.
  Scalar relativistic treatment of kinetic energy: ZORA.
  Threshold value for ZORA:   0.100000E-11
  Occupation type: Gaussian broadening, width =   0.100000E-03 eV.
  Since 'load_balancing .true.' is present in control.in, automatically turning on 'use_local_index .true.'.
  Using load balancing for integrations.
  Kohn-Sham electronic structure solved by the ELSI library.
  Using pulay charge density mixing.
  Pulay mixing - number of memorized iterations:    5
  Charge density mixing - mixing parameter:     0.4000
  Convergence accuracy of total energy:  0.1000E-05
  Convergence accuracy of sum of eigenvalues:  0.1000E-03
  Convergence accuracy of self-consistent charge density:  0.1000E-05
  Maximum number of s.-c. iterations  :   100
  * Ignoring prodbas_threshold
  Threshold for basis singularities:  0.1000E-04
  override_illconditioning: Explicitly overriding any built-in checks for an ill-conditioned overlap matrix.
  *** WARNING: If you use this flag, you should really know what you are doing.
  *** DO NOT keep this flag set by default in all your control.in files.
  Using 1D integrations for auxiliary 2-center integrals.
  Spin treatment: No spin polarisation.
  Charge =   0.000000E+00: Neutral system requested explicitly.
 
  Reading configuration options for species H                   .
  | Found nuclear charge :   1.0000
  | Found atomic mass :    1.00794000000000      amu
  | Found l_max for Hartree potential  :   6
  | Found cutoff potl. onset [A], width [A], scale factor :    4.00000    2.00000    1.00000
  | Threshold for basis-dependent cutoff potential is   0.100000E-03
  | Found data for basic radial integration grid :    24 points, outermost radius =    7.000 A
  | Found multiplier for basic radial grid :   2
  | Found angular grid specification: user-specified.
  | Specified grid contains     6 separate shells.
  | Check grid settings after all constraints further below.
  | Found free-atom valence shell :  1 s   1.000
  | No ionic wave fns used. Skipping ion_occ.
  | Found hydrogenic basis function :  2 s   2.100
  | Found hydrogenic basis function :  2 p   3.500
  | Found hydrogenic basis function :  1 s   0.850
  | Found hydrogenic basis function :  2 p   3.700
  | Found hydrogenic basis function :  2 s   1.200
  | Found hydrogenic basis function :  3 d   7.000
  Species H                   : Missing cutoff potential type.
  Defaulting to exp(1/x)/(1-x)^2 type cutoff potential.
  Species H : No 'logarithmic' tag. Using default grid for free atom:
  | Default logarithmic grid data [bohr] : 0.1000E-03 0.1000E+03 0.1012E+01
  Species H : On-site basis accuracy parameter (for Gram-Schmidt orthonormalisation) not specified.
  Using default value basis_acc =  0.1000000E-03.
  Species H                   : Using default innermost maximum threshold i_radial=  2 for radial functions.
  Species H                   : Default cutoff onset for free atom density etc. : 0.40000000E+01 AA.
  Species H                   : Basic radial grid will be enhanced according to radial_multiplier =   2, to contain    49 grid points.
 
  Reading configuration options for species C                   .
  | Found nuclear charge :   6.0000
  | Found atomic mass :    12.0107000000000      amu
  | Found l_max for Hartree potential  :   6
  | Found cutoff potl. onset [A], width [A], scale factor :    4.00000    2.00000    1.00000
  | Threshold for basis-dependent cutoff potential is   0.100000E-03
  | Found data for basic radial integration grid :    34 points, outermost radius =    7.000 A
  | Found multiplier for basic radial grid :   2
  | Found angular grid specification: user-specified.
  | Specified grid contains     6 separate shells.
  | Check grid settings after all constraints further below.
  | Found free-atom valence shell :  2 s   2.000
  | Found free-atom valence shell :  2 p   2.000
  | No ionic wave fns used. Skipping ion_occ.
  | No ionic wave fns used. Skipping ion_occ.
  | Found hydrogenic basis function :  2 p   1.700
  | Found hydrogenic basis function :  3 d   6.000
  | Found hydrogenic basis function :  2 s   4.900
  | Found hydrogenic basis function :  4 f   9.800
  | Found hydrogenic basis function :  3 p   5.200
  | Found hydrogenic basis function :  3 s   4.300
  | Found hydrogenic basis function :  5 g  14.400
  | Found hydrogenic basis function :  3 d   6.200
  Species C                   : Missing cutoff potential type.
  Defaulting to exp(1/x)/(1-x)^2 type cutoff potential.
  Species C : No 'logarithmic' tag. Using default grid for free atom:
  | Default logarithmic grid data [bohr] : 0.1000E-03 0.1000E+03 0.1012E+01
  Species C : On-site basis accuracy parameter (for Gram-Schmidt orthonormalisation) not specified.
  Using default value basis_acc =  0.1000000E-03.
  Species C                   : Using default innermost maximum threshold i_radial=  2 for radial functions.
  Species C                   : Default cutoff onset for free atom density etc. : 0.40000000E+01 AA.
  Species C                   : Basic radial grid will be enhanced according to radial_multiplier =   2, to contain    69 grid points.
 
  Finished reading input file 'control.in'. Consistency checks are next.
 
  MPI_IN_PLACE appears to work with this MPI implementation.
  | Keeping use_mpi_in_place .true. (see manual).
  Target number of points in a grid batch is not set. Defaulting to  100
  Method for grid partitioning is not set. Defaulting to parallel hash+maxmin partitioning.
  Batch size limit is not set. Defaulting to    200
  By default, will store active basis functions for each batch.
  If in need of memory, prune_basis_once .false. can be used to disable this option.
  communication_type for Hartree potential was not specified.
  Defaulting to calc_hartree .
  Pulay mixer: Number of initial linear mixing iterations not set.
  Defaulting to    0 iterations.
  Work space size for distributed Hartree potential not set.
  Defaulting to   0.200000E+03 MB.
  Algorithm-dependent basis array size parameters:
  | n_max_pulay                         :        5
  Presetting      1001 iterations before the initial mixing cycle
  is restarted anyway using the sc_init_iter criterion / keyword.
  Presetting a factor      1.000 between actual scf density residual
  and density convergence criterion sc_accuracy_rho below which sc_init_iter
  takes no effect.
  Calculation of forces was not defined in control.in. No forces will be calculated.
  Geometry relaxation not requested: no relaxation will be performed.
  No accuracy limit for integral partition fn. given. Defaulting to  0.1000E-14.
  No threshold value for u(r) in integrations given. Defaulting to  0.1000E-05.
  No accuracy for occupation numbers given. Defaulting to  0.1000E-12.
  No threshold value for occupation numbers given. Defaulting to  0.0000E+00.
  No accuracy for fermi level given. Defaulting to  0.1000E-19.
  Maximum # of iterations to find E_F not set. Defaulting to  200.
  Will not use alltoall communication since running on < 1024 CPUs.
  partition_type (choice of integration weights) for integrals was not specified.
  | Using a version of the partition function of Stratmann and coworkers ('stratmann_sparse').
  | At each grid point, the set of atoms used to build the partition table is smoothly restricted to
  | only those atoms whose free-atom density would be non-zero at that grid point.
  Partitioning for Hartree potential was not defined. Using partition_type for integrals.
  | Adjusted default value of keyword multip_moments_threshold to:       0.10000000E-11
  | This value may affect high angular momentum components of the Hartree potential in periodic systems.
  No q(lm)/r^(l+1) cutoff set for long-range Hartree potential.
  | Using default value of  0.100000E-09 .
  | Verify using the multipole_threshold keyword.
  Defaulting to new monopole extrapolation.
  Density update method: automatic selection selected.
 * Warning: use_local_index and/or load_balancing needs packed_matrix_format = index
 * Changing the default setting to packed_matrix_format = index
------------------------------------------------------------


------------------------------------------------------------
          Reading geometry description geometry.in.
------------------------------------------------------------
  Input structure read successfully.
  The structure contains       42 atoms,  and a total of        162.000 electrons.

  Input geometry:
  | No unit cell requested.
  | Atomic structure:
  |       Atom                x [A]            y [A]            z [A]
  |    1: Species H            37.13993000       24.92654800       42.85499800
  |    2: Species C            37.83912700       24.39023800       42.21451400
  |    3: Species C            37.49848400       24.14399100       40.87929200
  |    4: Species C            39.06851700       23.94653900       42.71654300
  |    5: Species H            36.54773200       24.51987200       40.50972700
  |    6: Species C            38.38592200       23.45313100       40.04609900
  |    7: Species C            39.95595600       23.25567900       41.88335000
  |    8: Species H            39.33330500       24.12234400       43.75759400
  |    9: Species C            38.02060000       23.18963500       38.61575500
  |   10: Species C            39.61531300       23.00943200       40.54812800
  |   11: Species H            40.91632600       22.90966500       42.26189800
  |   12: Species C            36.69811500       23.35587900       38.18947000
  |   13: Species C            39.00244300       22.77714500       37.70681800
  |   14: Species H            40.30271400       22.44309400       39.92666900
  |   15: Species C            36.35747100       23.10963200       36.85424800
  |   16: Species H            35.91671600       23.64590200       38.88579400
  |   17: Species C            38.66049100       22.52998300       36.37159500
  |   18: Species H            40.03970700       22.67534300       38.00891600
  |   19: Species H            35.32036800       23.20889200       36.54598400
  |   20: Species C            37.33800500       22.69622700       35.94531100
  |   21: Species H            39.43841200       22.24052500       35.67069200
  |   22: Species C            36.97268300       22.43273100       34.51496700
  |   23: Species C            35.81349200       23.00037400       33.97242300
  |   24: Species C            37.78992300       21.61792800       33.72228900
  |   25: Species C            35.47154000       22.75321200       32.63720100
  |   26: Species H            35.18638900       23.66331300       34.56323200
  |   27: Species C            37.44927900       21.37168100       32.38706700
  |   28: Species H            38.68122500       21.14753600       34.13201500
  |   29: Species H            34.58121400       23.22619300       32.22958800
  |   30: Species C            36.29008800       21.93932300       31.84452200
  |   31: Species H            38.07889100       20.70845200       31.79925200
  |   32: Species C            35.92476600       21.67582800       30.41417900
  |   33: Species C            34.62040400       21.91872800       29.96851800
  |   34: Species C            36.88848400       21.18668000       29.52461800
  |   35: Species C            34.27845300       21.67156600       28.63329500
  |   36: Species H            33.85592700       22.27891600       30.65039700
  |   37: Species C            36.54653300       20.93951900       28.18939600
  |   38: Species H            37.91276200       21.01657800       29.84503600
  |   39: Species H            33.26036800       21.85423400       28.29561400
  |   40: Species C            35.24217100       21.18241900       27.74373400
  |   41: Species H            37.30441100       20.57002100       27.49976600
  |   42: Species H            34.98015400       21.00392200       26.70197900
  |

  | The smallest distance between any two atoms is         1.08514674 AA.
  |
  | The first atom of this pair is atom number                     13 .
  | The second atom of this pair is atom number                    18 .

  Number of empty states per atom not set in control.in - providing a guess from actual geometry.
  | Total number of empty states used during s.c.f. cycle:       99
  If you use a very high smearing, use empty_states (per atom!) in control.in to increase this value.

  Structure-dependent array size parameters: 
  | Maximum number of distinct radial functions  :       18
  | Maximum number of basis functions            :     1206
  | Number of Kohn-Sham states (occupied + empty):      180
------------------------------------------------------------

------------------------------------------------------------
          Preparing all fixed parts of the calculation.
------------------------------------------------------------
  Determining machine precision:
    2.225073858507201E-308
  Setting up grids for atomic and cluster calculations.

  Creating wave function, potential, and density for free atoms.

  Species: H

  List of occupied orbitals and eigenvalues:
    n    l              occ      energy [Ha]    energy [eV]
    1    0           1.0000        -0.238386        -6.4868


  Species: C

  List of occupied orbitals and eigenvalues:
    n    l              occ      energy [Ha]    energy [eV]
    1    0           2.0000       -10.049212      -273.4530
    2    0           2.0000        -0.504761       -13.7352
    2    1           2.0000        -0.193631        -5.2690

  Creating fixed part of basis set: Ionic, confined, hydrogenic.
 
  H                    hydrogenic:
 
  List of hydrogenic basis orbitals: 
    n    l      effective z      eigenvalue [eV]  inner max. [A]     outer max. [A]     outer radius [A]   
    2    0         2.100000       -14.9965           0.193243           1.317208           5.373006
    2    1         3.500000       -41.6672           0.602369           0.602369           4.056063
    1    0         0.850000        -9.8292           0.624871           0.624871           5.373006
    2    1         3.700000       -46.5653           0.573622           0.573622           3.910002
    2    0         1.200000        -4.5995           0.334980           2.228188           5.505995
    3    2         7.000000       -74.0753           0.680699           0.680699           3.769201
 
 
  C                    hydrogenic:
 
  List of hydrogenic basis orbitals: 
    n    l      effective z      eigenvalue [eV]  inner max. [A]     outer max. [A]     outer radius [A]   
    2    1         1.700000        -9.8152           1.245706           1.245706           5.401630
    3    2         6.000000       -54.4226           0.792453           0.792453           4.178599
    2    0         4.900000       -81.6681           0.082559           0.562749           3.353238
    4    3         9.800000       -81.6681           0.863254           0.863254           4.028125
    3    1         5.200000       -40.8774           0.305389           1.215618           4.898362
    3    0         4.300000       -27.9508           0.091041           1.610311           5.401630
    5    4        14.400000      -112.8510           0.917666           0.917666           3.883070
    3    2         6.200000       -58.1113           0.763917           0.763917           4.077671
 

  Adding cutoff potential to free-atom effective potential.
  Creating atomic-like basis functions for current effective potential.

  Species H                   :

  List of atomic basis orbitals and eigenvalues:
    n    l      energy [Ha]    energy [eV]    outer radius [A]
    1    0        -0.238386        -6.4868       5.373006


  Species C                   :

  List of atomic basis orbitals and eigenvalues:
    n    l      energy [Ha]    energy [eV]    outer radius [A]
    1    0       -10.049212      -273.4530       1.934409
    2    0        -0.504761       -13.7352       5.271162
    2    1        -0.193631        -5.2690       5.401630

  Assembling full basis from fixed parts.
  | Species H :   atomic orbital   1 s accepted.
  | Species H :    hydro orbital   2 s accepted.
  | Species H :    hydro orbital   1 s accepted.
  | Species H :    hydro orbital   2 s accepted.
  | Species H :    hydro orbital   2 p accepted.
  | Species H :    hydro orbital   2 p accepted.
  | Species H :    hydro orbital   3 d accepted.
  | Species C :   atomic orbital   1 s accepted.
  | Species C :    hydro orbital   2 s accepted.
  | Species C :   atomic orbital   2 s accepted.
  | Species C :    hydro orbital   3 s accepted.
  | Species C :    hydro orbital   3 p accepted.
  | Species C :   atomic orbital   2 p accepted.
  | Species C :    hydro orbital   2 p accepted.
  | Species C :    hydro orbital   3 d accepted.
  | Species C :    hydro orbital   3 d accepted.
  | Species C :    hydro orbital   4 f accepted.
  | Species C :    hydro orbital   5 g accepted.
 
  Basis size parameters after reduction:
  | Total number of radial functions:       18
  | Total number of basis functions :     1206
 
  Per-task memory consumption for arrays in subroutine allocate_ext:
  |           4.441936MB.
  Testing on-site integration grid accuracy.
  |  Species  Function  <phi|h_atom|phi> (log., in eV)  <phi|h_atom|phi> (rad., in eV)
           1        1                 -6.4870767962                 -6.4871688290
           1        2                 13.5032046589                 13.5028982997
           1        3                 32.8195184817                 32.8119941656
           1        4                 33.8513856511                 33.7670005767 ***
           1        5                 28.8544614965                 28.8544615203
           1        6                 59.6326952547                 59.6327656460
           1        7                 60.2719308513                 60.2719305949
           2        8               -273.4529726040               -273.4529710464
           2        9                -10.7721037319                -10.7721022101
           2       10                 17.6044132601                 17.6044162063
           2       11                 53.7706460658                 53.7706913770
           2       12                 15.0973290362                 15.0973256030
           2       13                  3.8545134692                  3.8545724687
           2       14                 12.1156992592                 12.1182024431
           2       15                 29.4352039302                 29.4352041816
           2       16                 54.8741144708                 54.8740268729
           2       17                 59.3556032049                 59.3556031382
           2       18                 93.4551837154                 93.4551838009
 * Note: Onsite integrals marked "***" above are less accurate than
 * onsite_accuracy_threshold =    0.03000 eV. Usually, this is harmless.
 * When in doubt, tighten the "radial" and/or "radial_multiplier" flags to check.

  Preparing densities etc. for the partition functions (integrals / Hartree potential).

  Preparations completed.
  max(cpu_time)          :      0.200 s.
  Wall clock time (cpu1) :      0.203 s.
------------------------------------------------------------

------------------------------------------------------------
          Begin self-consistency loop: Initialization.

          Date     :  20210620, Time     :  174544.059
------------------------------------------------------------

  Initializing index lists of integration centers etc. from given atomic structure:
  | Number of centers in hartree potential         :        42
  | Number of centers in hartree multipole         :        42
  | Number of centers in electron density summation:        42
  | Number of centers in basis integrals           :        42
  | Number of centers in integrals                 :        42
  | Number of centers in hamiltonian               :        42
  * Using 56 tasks for Scalapack Eigenvalue solver.
  Detailed listing of tasks and assigned k-points:
  (for non-periodic systems, the "k-point" denotes an internal label only)
   Task     0 k-point     1 on d001
   Task     1 k-point     1 on d001
   Task     2 k-point     1 on d001
   Task     3 k-point     1 on d001
   Task     4 k-point     1 on d001
   Task     5 k-point     1 on d001
   Task     6 k-point     1 on d001
   Task     7 k-point     1 on d001
   Task     8 k-point     1 on d001
   Task     9 k-point     1 on d001
   Task    10 k-point     1 on d001
   Task    11 k-point     1 on d001
   Task    12 k-point     1 on d001
   Task    13 k-point     1 on d001
   Task    14 k-point     1 on d001
   Task    15 k-point     1 on d001
   Task    16 k-point     1 on d001
   Task    17 k-point     1 on d001
   Task    18 k-point     1 on d001
   Task    19 k-point     1 on d001
   Task    20 k-point     1 on d001
   Task    21 k-point     1 on d001
   Task    22 k-point     1 on d001
   Task    23 k-point     1 on d001
   Task    24 k-point     1 on d001
   Task    25 k-point     1 on d001
   Task    26 k-point     1 on d001
   Task    27 k-point     1 on d001
   Task    28 k-point     1 on d001
   Task    29 k-point     1 on d001
   Task    30 k-point     1 on d001
   Task    31 k-point     1 on d001
   Task    32 k-point     1 on d001
   Task    33 k-point     1 on d001
   Task    34 k-point     1 on d001
   Task    35 k-point     1 on d001
   Task    36 k-point     1 on d001
   Task    37 k-point     1 on d001
   Task    38 k-point     1 on d001
   Task    39 k-point     1 on d001
   Task    40 k-point     1 on d001
   Task    41 k-point     1 on d001
   Task    42 k-point     1 on d001
   Task    43 k-point     1 on d001
   Task    44 k-point     1 on d001
   Task    45 k-point     1 on d001
   Task    46 k-point     1 on d001
   Task    47 k-point     1 on d001
   Task    48 k-point     1 on d001
   Task    49 k-point     1 on d001
   Task    50 k-point     1 on d001
   Task    51 k-point     1 on d001
   Task    52 k-point     1 on d001
   Task    53 k-point     1 on d001
   Task    54 k-point     1 on d001
   Task    55 k-point     1 on d001
  Tasks:    56 split into      8 X      7 BLACS grid
  Calculating block size based on n_basis =         1206 max_nprow =            8 max_npcol =            7
  ScaLAPACK block size set to:           16
  Allocating        0.225 MB for ovlp
  Allocating        0.225 MB for ham
  Allocating        0.225 MB for eigenvec
  Required Scalapack workspace - INTEGER:            1 REAL:             1
  Partitioning the integration grid into batches with parallel hashing+maxmin method.
  | Number of batches:     7197
  | Maximal batch size:     200
  | Minimal batch size:       1
  | Average batch size:      96.425
  | Standard deviation of batch sizes:      27.029

  Integration load balanced across     56 MPI tasks.
  Work distribution over tasks is as follows:
  Task      0 has      12456 integration points.
  Task      1 has      12469 integration points.
  Task      2 has      12353 integration points.
  Task      3 has      12544 integration points.
  Task      4 has      12348 integration points.
  Task      5 has      12465 integration points.
  Task      6 has      12279 integration points.
  Task      7 has      12508 integration points.
  Task      8 has      12382 integration points.
  Task      9 has      12320 integration points.
  Task     10 has      12402 integration points.
  Task     11 has      12389 integration points.
  Task     12 has      12390 integration points.
  Task     13 has      12327 integration points.
  Task     14 has      12517 integration points.
  Task     15 has      12459 integration points.
  Task     16 has      12258 integration points.
  Task     17 has      12431 integration points.
  Task     18 has      12419 integration points.
  Task     19 has      12358 integration points.
  Task     20 has      12285 integration points.
  Task     21 has      12448 integration points.
  Task     22 has      12411 integration points.
  Task     23 has      12402 integration points.
  Task     24 has      12407 integration points.
  Task     25 has      12339 integration points.
  Task     26 has      12436 integration points.
  Task     27 has      12264 integration points.
  Task     28 has      12451 integration points.
  Task     29 has      12414 integration points.
  Task     30 has      12392 integration points.
  Task     31 has      12483 integration points.
  Task     32 has      12350 integration points.
  Task     33 has      12382 integration points.
  Task     34 has      12372 integration points.
  Task     35 has      12439 integration points.
  Task     36 has      12433 integration points.
  Task     37 has      12314 integration points.
  Task     38 has      12463 integration points.
  Task     39 has      12352 integration points.
  Task     40 has      12460 integration points.
  Task     41 has      12215 integration points.
  Task     42 has      12478 integration points.
  Task     43 has      12447 integration points.
  Task     44 has      12308 integration points.
  Task     45 has      12414 integration points.
  Task     46 has      12411 integration points.
  Task     47 has      12367 integration points.
  Task     48 has      12273 integration points.
  Task     49 has      12446 integration points.
  Task     50 has      12383 integration points.
  Task     51 has      12365 integration points.
  Task     52 has      12428 integration points.
  Task     53 has      12354 integration points.
  Task     54 has      12442 integration points.
  Task     55 has      12270 integration points.
  Initializing partition tables, free-atom densities, potentials, etc. across the integration grid (initialize_grid_storage).
  | initialize_grid_storage: Actual outermost partition radius vs. multipole_radius_free
  | (-- VB: in principle, multipole_radius_free should be larger, hence this output)
  | Species        1: Confinement radius =              6.000000000000000 AA, multipole_radius_free =              6.071692442739658 AA.
  | Species        1: outer_partition_radius set to              6.071692442739658 AA .
  | Species        2: Confinement radius =              6.000000000000000 AA, multipole_radius_free =              6.029870734432609 AA.
  | Species        2: outer_partition_radius set to              6.029870734432609 AA .
  | The sparse table of interatomic distances needs     20.1640 kbyte instead of    14.1120 kbyte of memory.
  | Using the partition_type stratmann_smoother will reduce your memory usage.
  | Net number of integration points:   693972
  | of which are non-zero points    :   559867
  Renormalizing the initial density to the exact electron count on the 3D integration grid.
  | Initial density: Formal number of electrons (from input files) :     162.0000000000
  | Integrated number of electrons on 3D grid     :     162.0002507254
  | Charge integration error                      :       0.0002507254
  | Normalization factor for density and gradient :       0.9999984523
  Obtaining max. number of non-zero basis functions in each batch (get_n_compute_maxes).
  | Maximal number of non-zero basis functions:      648
  Selecting the method for density update.
  Loop over occupied states selected for charge density update.
  Hamiltonian matrix size:
  | Size of matrix non-packed:                727821
  | Size of matrix packed:          542339
  Allocating        1.737 MB for KS_eigenvector
  use_local_index: Max. local matrix size =       355820
  Task:     0 matrix size:      83436
  Task:     1 matrix size:      92665
  Task:     2 matrix size:     109278
  Task:     3 matrix size:     282134
  Task:     4 matrix size:     253484
  Task:     5 matrix size:     321052
  Task:     6 matrix size:     330573
  Task:     7 matrix size:      98790
  Task:     8 matrix size:     142098
  Task:     9 matrix size:     191080
  Task:    10 matrix size:     315011
  Task:    11 matrix size:     345211
  Task:    12 matrix size:     268534
  Task:    13 matrix size:     337083
  Task:    14 matrix size:      67896
  Task:    15 matrix size:     140587
  Task:    16 matrix size:     142240
  Task:    17 matrix size:     328942
  Task:    18 matrix size:     355820
  Task:    19 matrix size:     316518
  Task:    20 matrix size:     335363
  Task:    21 matrix size:     127255
  Task:    22 matrix size:     225624
  Task:    23 matrix size:     241876
  Task:    24 matrix size:     335060
  Task:    25 matrix size:     334512
  Task:    26 matrix size:     308733
  Task:    27 matrix size:     314599
  Task:    28 matrix size:     260015
  Task:    29 matrix size:     290953
  Task:    30 matrix size:     294121
  Task:    31 matrix size:     292391
  Task:    32 matrix size:     282571
  Task:    33 matrix size:     205592
  Task:    34 matrix size:     141189
  Task:    35 matrix size:     313892
  Task:    36 matrix size:     328540
  Task:    37 matrix size:     283426
  Task:    38 matrix size:     189206
  Task:    39 matrix size:     194728
  Task:    40 matrix size:     121771
  Task:    41 matrix size:      74305
  Task:    42 matrix size:     276386
  Task:    43 matrix size:     348872
  Task:    44 matrix size:     342016
  Task:    45 matrix size:     179242
  Task:    46 matrix size:     194728
  Task:    47 matrix size:     108811
  Task:    48 matrix size:     115921
  Task:    49 matrix size:     348406
  Task:    50 matrix size:     320455
  Task:    51 matrix size:     269060
  Task:    52 matrix size:     133891
  Task:    53 matrix size:     123256
  Task:    54 matrix size:      71631
  Task:    55 matrix size:      66795
  Integrating Hamiltonian matrix: batch-based integration.
  Time summed over all CPUs for integration: real work       87.715 s, elapsed      142.799 s
  Time get_set_sparse_local_matrix_scalapack:     0.010518 s
  Start compute_balanced_batch_distribution
  Done load balancing, time needed:      0.007 s
  Integrating overlap matrix with loadbalancing
  Time summed over all CPUs for integration: real work       24.717 s, elapsed       27.711 s
  Time get_set_full_local_matrix_scalapack:     0.009290 s

  Updating Kohn-Sham eigenvalues and eigenvectors using ELSI and the ELPA eigensolver.
  Overlap matrix is not singular
  | Lowest and highest eigenvalues :  0.10E+02,  0.98E-04
  Finished singularity check of overlap matrix
  | Time :     0.065 s
  Finished Cholesky decomposition
  | Time :     0.015 s
  Finished transformation to standard eigenproblem
  | Time :     0.010 s
  Starting ELPA eigensolver
  Finished solving standard eigenproblem
  | Time :     0.065 s
  Finished back-transformation of eigenvectors
  | Time :     0.003 s

  Obtaining occupation numbers and chemical potential using ELSI.
  | Chemical potential (Fermi level):    -8.76889727 eV
  Writing Kohn-Sham eigenvalues.

  State    Occupation    Eigenvalue [Ha]    Eigenvalue [eV]
      1       2.00000         -10.168845         -276.70835
      2       2.00000         -10.168794         -276.70695
      3       2.00000         -10.168639         -276.70275
      4       2.00000         -10.168635         -276.70264
      5       2.00000         -10.168587         -276.70134
      6       2.00000         -10.168561         -276.70061
      7       2.00000         -10.168522         -276.69956
      8       2.00000         -10.168515         -276.69937
      9       2.00000         -10.168454         -276.69770
     10       2.00000         -10.168405         -276.69638
     11       2.00000         -10.168190         -276.69052
     12       2.00000         -10.168136         -276.68907
     13       2.00000         -10.168083         -276.68761
     14       2.00000         -10.168083         -276.68761
     15       2.00000         -10.167804         -276.68003
     16       2.00000         -10.167798         -276.67987
     17       2.00000         -10.167543         -276.67293
     18       2.00000         -10.167538         -276.67279
     19       2.00000         -10.161967         -276.52119
     20       2.00000         -10.161886         -276.51898
     21       2.00000         -10.161880         -276.51883
     22       2.00000         -10.161722         -276.51451
     23       2.00000         -10.161708         -276.51415
     24       2.00000         -10.161657         -276.51276
     25       2.00000          -1.002123          -27.26916
     26       2.00000          -0.995205          -27.08090
     27       2.00000          -0.984975          -26.80253
     28       2.00000          -0.975439          -26.54306
     29       2.00000          -0.921196          -25.06701
     30       2.00000          -0.898573          -24.45141
     31       2.00000          -0.887930          -24.16181
     32       2.00000          -0.884053          -24.05629
     33       2.00000          -0.878930          -23.91691
     34       2.00000          -0.875388          -23.82053
     35       2.00000          -0.870526          -23.68821
     36       2.00000          -0.843460          -22.95172
     37       2.00000          -0.776195          -21.12135
     38       2.00000          -0.769463          -20.93815
     39       2.00000          -0.755468          -20.55734
     40       2.00000          -0.749943          -20.40698
     41       2.00000          -0.736237          -20.03403
     42       2.00000          -0.726262          -19.76258
     43       2.00000          -0.719958          -19.59105
     44       2.00000          -0.712868          -19.39813
     45       2.00000          -0.674850          -18.36361
     46       2.00000          -0.662982          -18.04065
     47       2.00000          -0.643508          -17.51076
     48       2.00000          -0.640488          -17.42856
     49       2.00000          -0.626632          -17.05151
     50       2.00000          -0.609869          -16.59537
     51       2.00000          -0.608348          -16.55398
     52       2.00000          -0.605087          -16.46525
     53       2.00000          -0.596604          -16.23443
     54       2.00000          -0.586666          -15.96400
     55       2.00000          -0.575680          -15.66506
     56       2.00000          -0.575566          -15.66194
     57       2.00000          -0.570703          -15.52962
     58       2.00000          -0.569570          -15.49880
     59       2.00000          -0.565340          -15.38369
     60       2.00000          -0.560073          -15.24037
     61       2.00000          -0.553998          -15.07505
     62       2.00000          -0.537101          -14.61527
     63       2.00000          -0.516982          -14.06780
     64       2.00000          -0.513196          -13.96477
     65       2.00000          -0.512053          -13.93366
     66       2.00000          -0.510249          -13.88458
     67       2.00000          -0.502830          -13.68270
     68       2.00000          -0.498627          -13.56833
     69       2.00000          -0.497041          -13.52516
     70       2.00000          -0.495563          -13.48495
     71       2.00000          -0.490657          -13.35145
     72       2.00000          -0.483724          -13.16280
     73       2.00000          -0.482956          -13.14191
     74       2.00000          -0.438099          -11.92128
     75       2.00000          -0.413487          -11.25155
     76       2.00000          -0.402703          -10.95810
     77       2.00000          -0.400986          -10.91138
     78       2.00000          -0.398497          -10.84366
     79       2.00000          -0.397223          -10.80900
     80       2.00000          -0.384241          -10.45572
     81       2.00000          -0.359896           -9.79327
     82       0.00000          -0.247940           -6.74678
     83       0.00000          -0.221583           -6.02957
     84       0.00000          -0.219698           -5.97830
     85       0.00000          -0.214346           -5.83265
     86       0.00000          -0.206301           -5.61373
     87       0.00000          -0.201738           -5.48957
     88       0.00000          -0.186844           -5.08428
     89       0.00000          -0.155626           -4.23479
     90       0.00000          -0.092956           -2.52946
     91       0.00000          -0.073437           -1.99831
     92       0.00000          -0.073199           -1.99183
     93       0.00000          -0.071115           -1.93515
     94       0.00000          -0.063528           -1.72869
     95       0.00000          -0.057441           -1.56305
     96       0.00000          -0.052744           -1.43523
     97       0.00000          -0.052454           -1.42735
     98       0.00000          -0.040210           -1.09417
     99       0.00000          -0.032857           -0.89409
    100       0.00000          -0.028307           -0.77027
    101       0.00000          -0.026330           -0.71646
    102       0.00000          -0.023426           -0.63745
    103       0.00000          -0.014795           -0.40259
    104       0.00000          -0.013600           -0.37008
    105       0.00000          -0.008768           -0.23860
    106       0.00000          -0.002614           -0.07113
    107       0.00000           0.004040            0.10993
    108       0.00000           0.006343            0.17259
    109       0.00000           0.008742            0.23789
    110       0.00000           0.010835            0.29482
    111       0.00000           0.016061            0.43705
    112       0.00000           0.022529            0.61306
    113       0.00000           0.024179            0.65794
    114       0.00000           0.028346            0.77135
    115       0.00000           0.033543            0.91275
    116       0.00000           0.035125            0.95581
    117       0.00000           0.041926            1.14088
    118       0.00000           0.043528            1.18445
    119       0.00000           0.045213            1.23030
    120       0.00000           0.047375            1.28914
    121       0.00000           0.050397            1.37137
    122       0.00000           0.052696            1.43392
    123       0.00000           0.060260            1.63976
    124       0.00000           0.064073            1.74350
    125       0.00000           0.065859            1.79213
    126       0.00000           0.070226            1.91095
    127       0.00000           0.074980            2.04031
    128       0.00000           0.075545            2.05569
    129       0.00000           0.083913            2.28338
    130       0.00000           0.085128            2.31646
    131       0.00000           0.086110            2.34318
    132       0.00000           0.087368            2.37740
    133       0.00000           0.091805            2.49815
    134       0.00000           0.094927            2.58309
    135       0.00000           0.097583            2.65537
    136       0.00000           0.097895            2.66387
    137       0.00000           0.103365            2.81270
    138       0.00000           0.109206            2.97165
    139       0.00000           0.109863            2.98954
    140       0.00000           0.111259            3.02750
    141       0.00000           0.113234            3.08125
    142       0.00000           0.120150            3.26943
    143       0.00000           0.124428            3.38587
    144       0.00000           0.126093            3.43118
    145       0.00000           0.127785            3.47722
    146       0.00000           0.134972            3.67277
    147       0.00000           0.135690            3.69231
    148       0.00000           0.136675            3.71911
    149       0.00000           0.147640            4.01748
    150       0.00000           0.148628            4.04437
    151       0.00000           0.149761            4.07520
    152       0.00000           0.156814            4.26713
    153       0.00000           0.158206            4.30501
    154       0.00000           0.161655            4.39885
    155       0.00000           0.162527            4.42259
    156       0.00000           0.162742            4.42845
    157       0.00000           0.162918            4.43323
    158       0.00000           0.165335            4.49900
    159       0.00000           0.175966            4.78828
    160       0.00000           0.177016            4.81685
    161       0.00000           0.182691            4.97126
    162       0.00000           0.186112            5.06436
    163       0.00000           0.193539            5.26646
    164       0.00000           0.193635            5.26908
    165       0.00000           0.200372            5.45241
    166       0.00000           0.203495            5.53739
    167       0.00000           0.207769            5.65368
    168       0.00000           0.214033            5.82412
    169       0.00000           0.215411            5.86164
    170       0.00000           0.216111            5.88068
    171       0.00000           0.218208            5.93774
    172       0.00000           0.221281            6.02135
    173       0.00000           0.221554            6.02880
    174       0.00000           0.228636            6.22150
    175       0.00000           0.228787            6.22561
    176       0.00000           0.231546            6.30068
    177       0.00000           0.234894            6.39178
    178       0.00000           0.235662            6.41269
    179       0.00000           0.236313            6.43041
    180       0.00000           0.247387            6.73173

  Highest occupied state (VBM) at     -9.79326950 eV
  | Occupation number:      2.00000000

  Lowest unoccupied state (CBM) at    -6.74678261 eV
  | Occupation number:      0.00000000

  Overall HOMO-LUMO gap:      3.04648689 eV.
  Calculating total energy contributions from superposition of free atom densities.

  Total energy components:
  | Sum of eigenvalues            :        -560.85243642 Ha      -15261.57129522 eV
  | XC energy correction          :        -133.24871211 Ha       -3625.88193923 eV
  | XC potential correction       :         171.15049188 Ha        4657.24184187 eV
  | Free-atom electrostatic energy:        -403.22589151 Ha      -10972.33477425 eV
  | Hartree energy correction     :           0.00000000 Ha           0.00000000 eV
  | Entropy correction            :           0.00000000 Ha           0.00000000 eV
  | ---------------------------
  | Total energy                  :        -926.17654816 Ha      -25202.54616683 eV
  | Total energy, T -> 0          :        -926.17654816 Ha      -25202.54616683 eV  <-- do not rely on this value for anything but (periodic) metals
  | Electronic free energy        :        -926.17654816 Ha      -25202.54616683 eV

  Derived energy quantities:
  | Kinetic energy                :         916.34119569 Ha       24934.91260922 eV
  | Electrostatic energy          :       -1709.26903175 Ha      -46511.57683682 eV
  | Energy correction for multipole
  | error in Hartree potential    :           0.00000000 Ha           0.00000000 eV
  | Sum of eigenvalues per atom                           :        -363.37074512 eV
  | Total energy (T->0) per atom                          :        -600.06062302 eV  <-- do not rely on this value for anything but (periodic) metals
  | Electronic free energy per atom                       :        -600.06062302 eV
  Initialize hartree_potential_storage
  Max. number of atoms included in rho_multipole:           42

  End scf initialization - timings             :  max(cpu_time)    wall_clock(cpu1)
  | Time for scf. initialization               :        4.220 s           4.277 s
  | Boundary condition initialization          :        0.001 s           0.004 s
  | Integration                                :        3.081 s           3.088 s
  | Solution of K.-S. eqns.                    :        0.167 s           0.183 s
  | Grid partitioning                          :        0.519 s           0.523 s
  | Preloading free-atom quantities on grid    :        0.013 s           0.016 s
  | Free-atom superposition energy             :        0.044 s           0.044 s
  | Total energy evaluation                    :        0.001 s           0.004 s

  Partial memory accounting:
  | Current value for overall tracked memory usage on task 0  :           2.747 MB
  | Peak value for overall tracked memory usage on task 0     :          16.120 MB after allocating zora_vector2
  | Largest tracked array allocation on task 0 so far         :           3.359 MB  when allocating hamiltonian_shell
  Note:  These values currently only include a subset of arrays which are explicitly tracked.
  The "true" memory usage will be greater.
------------------------------------------------------------

------------------------------------------------------------
          Begin self-consistency iteration #    1

  Date     :  20210620, Time     :  174548.339
------------------------------------------------------------
  Evaluating new KS density.
  Integration grid: deviation in total charge (<rho> - N_e) =   5.684342E-14
  Pulay mixing of updated and previous charge densities.

  Evaluating partitioned Hartree potential by multipole expansion.
  | Analytical far-field extrapolation by fixed multipoles:
  | Hartree multipole sum: apparent total charge =   0.243080E-03
  Summing up the Hartree potential with load balancing.
  Time summed over all CPUs for potential: real work       18.677 s, elapsed       27.493 s
  | RMS charge density error from multipole expansion :   0.115239E-01

  Start compute_balanced_batch_distribution
  Done load balancing, time needed:      0.006 s
  Integrating Hamiltonian matrix: batch-based integration with load balancing
  Time summed over all CPUs for integration: real work       95.015 s, elapsed      104.228 s
  Time get_set_full_local_matrix_scalapack:     0.009167 s
  Start compute_balanced_batch_distribution
  Done load balancing, time needed:      0.006 s

  Updating Kohn-Sham eigenvalues and eigenvectors using ELSI and the ELPA eigensolver.
  Finished transformation to standard eigenproblem
  | Time :     0.010 s
  Starting ELPA eigensolver
  Finished solving standard eigenproblem
  | Time :     0.062 s
  Finished back-transformation of eigenvectors
  | Time :     0.003 s

  Obtaining occupation numbers and chemical potential using ELSI.
  | Chemical potential (Fermi level):    -4.28377728 eV
  Writing Kohn-Sham eigenvalues.

  State    Occupation    Eigenvalue [Ha]    Eigenvalue [eV]
      1       2.00000          -9.973600         -271.39547
      2       2.00000          -9.973276         -271.38663
      3       2.00000          -9.972957         -271.37797
      4       2.00000          -9.972920         -271.37696
      5       2.00000          -9.971835         -271.34743
      6       2.00000          -9.971490         -271.33805
      7       2.00000          -9.951681         -270.79901
      8       2.00000          -9.951634         -270.79773
      9       2.00000          -9.951616         -270.79724
     10       2.00000          -9.951515         -270.79449
     11       2.00000          -9.951292         -270.78844
     12       2.00000          -9.951225         -270.78660
     13       2.00000          -9.951158         -270.78479
     14       2.00000          -9.951119         -270.78374
     15       2.00000          -9.946581         -270.66024
     16       2.00000          -9.946491         -270.65780
     17       2.00000          -9.946452         -270.65673
     18       2.00000          -9.946386         -270.65495
     19       2.00000          -9.945383         -270.62763
     20       2.00000          -9.945263         -270.62438
     21       2.00000          -9.945231         -270.62350
     22       2.00000          -9.945114         -270.62031
     23       2.00000          -9.942182         -270.54054
     24       2.00000          -9.942104         -270.53842
     25       2.00000          -0.853041          -23.21243
     26       2.00000          -0.843444          -22.95127
     27       2.00000          -0.829825          -22.58069
     28       2.00000          -0.818522          -22.27313
     29       2.00000          -0.776702          -21.13514
     30       2.00000          -0.750510          -20.42242
     31       2.00000          -0.744520          -20.25941
     32       2.00000          -0.738309          -20.09041
     33       2.00000          -0.730460          -19.87683
     34       2.00000          -0.727247          -19.78939
     35       2.00000          -0.720421          -19.60366
     36       2.00000          -0.691553          -18.81813
     37       2.00000          -0.635738          -17.29931
     38       2.00000          -0.633689          -17.24356
     39       2.00000          -0.618762          -16.83737
     40       2.00000          -0.607669          -16.53553
     41       2.00000          -0.597558          -16.26038
     42       2.00000          -0.585853          -15.94188
     43       2.00000          -0.581919          -15.83483
     44       2.00000          -0.574469          -15.63210
     45       2.00000          -0.548867          -14.93544
     46       2.00000          -0.533904          -14.52828
     47       2.00000          -0.509041          -13.85171
     48       2.00000          -0.496321          -13.50559
     49       2.00000          -0.489375          -13.31658
     50       2.00000          -0.488030          -13.27996
     51       2.00000          -0.470425          -12.80092
     52       2.00000          -0.463035          -12.59982
     53       2.00000          -0.460480          -12.53031
     54       2.00000          -0.452304          -12.30782
     55       2.00000          -0.449610          -12.23452
     56       2.00000          -0.448830          -12.21329
     57       2.00000          -0.443135          -12.05831
     58       2.00000          -0.438802          -11.94040
     59       2.00000          -0.428546          -11.66132
     60       2.00000          -0.428454          -11.65883
     61       2.00000          -0.422001          -11.48323
     62       2.00000          -0.396102          -10.77848
     63       2.00000          -0.393309          -10.70247
     64       2.00000          -0.389842          -10.60815
     65       2.00000          -0.386441          -10.51558
     66       2.00000          -0.375134          -10.20791
     67       2.00000          -0.371358          -10.10517
     68       2.00000          -0.370520          -10.08236
     69       2.00000          -0.359736           -9.78891
     70       2.00000          -0.357092           -9.71696
     71       2.00000          -0.356647           -9.70486
     72       2.00000          -0.352225           -9.58453
     73       2.00000          -0.352019           -9.57893
     74       2.00000          -0.315700           -8.59063
     75       2.00000          -0.288301           -7.84507
     76       2.00000          -0.279167           -7.59651
     77       2.00000          -0.275930           -7.50844
     78       2.00000          -0.271158           -7.37859
     79       2.00000          -0.270320           -7.35577
     80       2.00000          -0.257056           -6.99486
     81       2.00000          -0.232107           -6.31596
     82       0.00000          -0.126616           -3.44539
     83       0.00000          -0.102461           -2.78810
     84       0.00000          -0.098597           -2.68296
     85       0.00000          -0.094010           -2.55815
     86       0.00000          -0.082164           -2.23578
     87       0.00000          -0.076345           -2.07746
     88       0.00000          -0.063435           -1.72614
     89       0.00000          -0.033359           -0.90773
     90       0.00000          -0.031476           -0.85651
     91       0.00000          -0.026894           -0.73183
     92       0.00000          -0.018343           -0.49913
     93       0.00000          -0.018176           -0.49459
     94       0.00000          -0.009561           -0.26017
     95       0.00000          -0.005978           -0.16268
     96       0.00000           0.004265            0.11606
     97       0.00000           0.009396            0.25569
     98       0.00000           0.018103            0.49260
     99       0.00000           0.024295            0.66110
    100       0.00000           0.026382            0.71789
    101       0.00000           0.031051            0.84494
    102       0.00000           0.041574            1.13129
    103       0.00000           0.046943            1.27738
    104       0.00000           0.049790            1.35487
    105       0.00000           0.057655            1.56887
    106       0.00000           0.058943            1.60391
    107       0.00000           0.063053            1.71577
    108       0.00000           0.071590            1.94806
    109       0.00000           0.073431            1.99817
    110       0.00000           0.076567            2.08349
    111       0.00000           0.081657            2.22201
    112       0.00000           0.085119            2.31619
    113       0.00000           0.087888            2.39154
    114       0.00000           0.094529            2.57226
    115       0.00000           0.100878            2.74504
    116       0.00000           0.103154            2.80697
    117       0.00000           0.105142            2.86106
    118       0.00000           0.112612            3.06432
    119       0.00000           0.113517            3.08894
    120       0.00000           0.114836            3.12484
    121       0.00000           0.118563            3.22625
    122       0.00000           0.122187            3.32489
    123       0.00000           0.127676            3.47424
    124       0.00000           0.132822            3.61427
    125       0.00000           0.137357            3.73768
    126       0.00000           0.138902            3.77971
    127       0.00000           0.141051            3.83819
    128       0.00000           0.141938            3.86232
    129       0.00000           0.143157            3.89551
    130       0.00000           0.150948            4.10750
    131       0.00000           0.152096            4.13874
    132       0.00000           0.156202            4.25047
    133       0.00000           0.157476            4.28514
    134       0.00000           0.163411            4.44663
    135       0.00000           0.165164            4.49434
    136       0.00000           0.166670            4.53533
    137       0.00000           0.172552            4.69539
    138       0.00000           0.174172            4.73946
    139       0.00000           0.181191            4.93047
    140       0.00000           0.185809            5.05612
    141       0.00000           0.188118            5.11895
    142       0.00000           0.190315            5.17872
    143       0.00000           0.192187            5.22969
    144       0.00000           0.193144            5.25571
    145       0.00000           0.196163            5.33788
    146       0.00000           0.196467            5.34613
    147       0.00000           0.202373            5.50686
    148       0.00000           0.203559            5.53913
    149       0.00000           0.208266            5.66719
    150       0.00000           0.211982            5.76831
    151       0.00000           0.214669            5.84144
    152       0.00000           0.218381            5.94245
    153       0.00000           0.223250            6.07493
    154       0.00000           0.234643            6.38496
    155       0.00000           0.235548            6.40959
    156       0.00000           0.236289            6.42974
    157       0.00000           0.239597            6.51976
    158       0.00000           0.241920            6.58298
    159       0.00000           0.246405            6.70503
    160       0.00000           0.248536            6.76301
    161       0.00000           0.253161            6.88887
    162       0.00000           0.256117            6.96928
    163       0.00000           0.257259            7.00038
    164       0.00000           0.257689            7.01208
    165       0.00000           0.264449            7.19603
    166       0.00000           0.266995            7.26530
    167       0.00000           0.272271            7.40888
    168       0.00000           0.277337            7.54673
    169       0.00000           0.278445            7.57688
    170       0.00000           0.279287            7.59979
    171       0.00000           0.287666            7.82779
    172       0.00000           0.289294            7.87209
    173       0.00000           0.292640            7.96314
    174       0.00000           0.300354            8.17305
    175       0.00000           0.301622            8.20756
    176       0.00000           0.303541            8.25977
    177       0.00000           0.308547            8.39598
    178       0.00000           0.315871            8.59529
    179       0.00000           0.317552            8.64103
    180       0.00000           0.325337            8.85286

  Highest occupied state (VBM) at     -6.31595942 eV
  | Occupation number:      2.00000000

  Lowest unoccupied state (CBM) at    -3.44539216 eV
  | Occupation number:      0.00000000

  Overall HOMO-LUMO gap:      2.87056727 eV.

  Total energy components:
  | Sum of eigenvalues            :        -535.16008291 Ha      -14562.44678521 eV
  | XC energy correction          :        -135.07031602 Ha       -3675.45030379 eV
  | XC potential correction       :         173.51410071 Ha        4721.55891063 eV
  | Free-atom electrostatic energy:        -403.22589151 Ha      -10972.33477425 eV
  | Hartree energy correction     :         -25.36670314 Ha        -690.26311252 eV
  | Entropy correction            :           0.00000000 Ha           0.00000000 eV
  | ---------------------------
  | Total energy                  :        -925.30889287 Ha      -25178.93606515 eV
  | Total energy, T -> 0          :        -925.30889287 Ha      -25178.93606515 eV  <-- do not rely on this value for anything but (periodic) metals
  | Electronic free energy        :        -925.30889287 Ha      -25178.93606515 eV

  Derived energy quantities:
  | Kinetic energy                :         924.49336233 Ha       25156.74435000 eV
  | Electrostatic energy          :       -1714.73193918 Ha      -46660.23011136 eV
  | Energy correction for multipole
  | error in Hartree potential    :          -0.05632597 Ha          -1.53270755 eV
  | Sum of eigenvalues per atom                           :        -346.72492346 eV
  | Total energy (T->0) per atom                          :        -599.49847774 eV  <-- do not rely on this value for anything but (periodic) metals
  | Electronic free energy per atom                       :        -599.49847774 eV

  Self-consistency convergence accuracy:
  | Change of charge density      :  0.9942E+00
  | Change of sum of eigenvalues  :  0.6991E+03 eV
  | Change of total energy        :  0.2361E+02 eV

  End self-consistency iteration #     1       :  max(cpu_time)    wall_clock(cpu1)
  | Time for this iteration                    :        3.241 s           3.248 s
  | Charge density update                      :        0.744 s           0.744 s
  | Density mixing                             :        0.002 s           0.003 s
  | Hartree multipole update                   :        0.009 s           0.009 s
  | Hartree multipole summation                :        0.500 s           0.502 s
  | Integration                                :        1.865 s           1.865 s
  | Solution of K.-S. eqns.                    :        0.108 s           0.109 s
  | Total energy evaluation                    :        0.000 s           0.000 s

  Partial memory accounting:
  | Current value for overall tracked memory usage on task 0  :           2.747 MB
  | Peak value for overall tracked memory usage on task 0     :          16.400 MB after allocating zora_vector2
  | Largest tracked array allocation on task 0 so far         :           3.359 MB  when allocating hamiltonian_shell
  Note:  These values currently only include a subset of arrays which are explicitly tracked.
  The "true" memory usage will be greater.
------------------------------------------------------------

------------------------------------------------------------
          Begin self-consistency iteration #    2

  Date     :  20210620, Time     :  174551.588
------------------------------------------------------------
  Evaluating new KS density.
  Integration grid: deviation in total charge (<rho> - N_e) =   8.526513E-14
  Pulay mixing of updated and previous charge densities.

  Evaluating partitioned Hartree potential by multipole expansion.
  | Analytical far-field extrapolation by fixed multipoles:
  | Hartree multipole sum: apparent total charge =   0.243947E-03
  Summing up the Hartree potential with load balancing.
  Time summed over all CPUs for potential: real work       18.945 s, elapsed       21.016 s
  | RMS charge density error from multipole expansion :   0.201458E-01

  Integrating Hamiltonian matrix: batch-based integration with load balancing
  Time summed over all CPUs for integration: real work       95.941 s, elapsed       98.436 s
  Time get_set_full_local_matrix_scalapack:     0.012528 s

  Updating Kohn-Sham eigenvalues and eigenvectors using ELSI and the ELPA eigensolver.
  Finished transformation to standard eigenproblem
  | Time :     0.009 s
  Starting ELPA eigensolver
  Finished solving standard eigenproblem
  | Time :     0.063 s
  Finished back-transformation of eigenvectors
  | Time :     0.003 s

  Obtaining occupation numbers and chemical potential using ELSI.
  | Chemical potential (Fermi level):    -3.46762162 eV
  Highest occupied state (VBM) at     -5.27148805 eV
  | Occupation number:      2.00000000

  Lowest unoccupied state (CBM) at    -2.40545215 eV
  | Occupation number:      0.00000000

  Overall HOMO-LUMO gap:      2.86603590 eV.

  Checking to see if s.c.f. parameters should be adjusted.

  Total energy components:
  | Sum of eigenvalues            :        -527.14584810 Ha      -14344.36836021 eV
  | XC energy correction          :        -135.83619845 Ha       -3696.29102514 eV
  | XC potential correction       :         174.49742261 Ha        4748.31646088 eV
  | Free-atom electrostatic energy:        -403.22589151 Ha      -10972.33477425 eV
  | Hartree energy correction     :         -33.48992822 Ha        -911.30731376 eV
  | Entropy correction            :           0.00000000 Ha           0.00000000 eV
  | ---------------------------
  | Total energy                  :        -925.20044368 Ha      -25175.98501248 eV
  | Total energy, T -> 0          :        -925.20044368 Ha      -25175.98501248 eV  <-- do not rely on this value for anything but (periodic) metals
  | Electronic free energy        :        -925.20044368 Ha      -25175.98501248 eV

  Derived energy quantities:
  | Kinetic energy                :         924.44429627 Ha       25155.40919461 eV
  | Electrostatic energy          :       -1713.80854149 Ha      -46635.10318195 eV
  | Energy correction for multipole
  | error in Hartree potential    :          -0.08967105 Ha          -2.44007331 eV
[...]
     10       2.00000          -9.898687         -269.35697
     11       2.00000          -9.898612         -269.35495
     12       2.00000          -9.898573         -269.35387
     13       2.00000          -9.898462         -269.35086
     14       2.00000          -9.898374         -269.34847
     15       2.00000          -9.898335         -269.34739
     16       2.00000          -9.898303         -269.34652
     17       2.00000          -9.898301         -269.34648
     18       2.00000          -9.898272         -269.34567
     19       2.00000          -9.897056         -269.31261
     20       2.00000          -9.897027         -269.31180
     21       2.00000          -9.896941         -269.30947
     22       2.00000          -9.896918         -269.30884
     23       2.00000          -9.896580         -269.29964
     24       2.00000          -9.896527         -269.29820
     25       2.00000          -0.801950          -21.82218
     26       2.00000          -0.793619          -21.59547
     27       2.00000          -0.781093          -21.25463
     28       2.00000          -0.769327          -20.93445
     29       2.00000          -0.724338          -19.71024
     30       2.00000          -0.698523          -19.00778
     31       2.00000          -0.689102          -18.75142
     32       2.00000          -0.683957          -18.61143
     33       2.00000          -0.677213          -18.42790
     34       2.00000          -0.672985          -18.31286
     35       2.00000          -0.667866          -18.17355
     36       2.00000          -0.637833          -17.35631
     37       2.00000          -0.577763          -15.72174
     38       2.00000          -0.577698          -15.71997
     39       2.00000          -0.561335          -15.27471
     40       2.00000          -0.550847          -14.98931
     41       2.00000          -0.539871          -14.69064
     42       2.00000          -0.528041          -14.36874
     43       2.00000          -0.522819          -14.22662
     44       2.00000          -0.515555          -14.02898
     45       2.00000          -0.492442          -13.40003
     46       2.00000          -0.478380          -13.01739
     47       2.00000          -0.452440          -12.31151
     48       2.00000          -0.434325          -11.81859
     49       2.00000          -0.431157          -11.73239
     50       2.00000          -0.426927          -11.61726
     51       2.00000          -0.412673          -11.22942
     52       2.00000          -0.404889          -11.01760
     53       2.00000          -0.398500          -10.84374
     54       2.00000          -0.394203          -10.72682
     55       2.00000          -0.391219          -10.64561
     56       2.00000          -0.386687          -10.52229
     57       2.00000          -0.384980          -10.47583
     58       2.00000          -0.381748          -10.38788
     59       2.00000          -0.372838          -10.14544
     60       2.00000          -0.371378          -10.10570
     61       2.00000          -0.367975          -10.01312
     62       2.00000          -0.348820           -9.49187
     63       2.00000          -0.347797           -9.46403
     64       2.00000          -0.337443           -9.18230
     65       2.00000          -0.334750           -9.10900
     66       2.00000          -0.328115           -8.92845
     67       2.00000          -0.319650           -8.69812
     68       2.00000          -0.313640           -8.53459
     69       2.00000          -0.311291           -8.47065
     70       2.00000          -0.298372           -8.11911
     71       2.00000          -0.297677           -8.10019
     72       2.00000          -0.292902           -7.97028
     73       2.00000          -0.289903           -7.88865
     74       2.00000          -0.276006           -7.51049
     75       2.00000          -0.249243           -6.78224
     76       2.00000          -0.239022           -6.50413
     77       2.00000          -0.236340           -6.43113
     78       2.00000          -0.232624           -6.33002
     79       2.00000          -0.230950           -6.28447
     80       2.00000          -0.217590           -5.92091
     81       2.00000          -0.191235           -5.20377
     82       0.00000          -0.085641           -2.33042
     83       0.00000          -0.062415           -1.69839
     84       0.00000          -0.058168           -1.58283
     85       0.00000          -0.054237           -1.47585
     86       0.00000          -0.041863           -1.13915
     87       0.00000          -0.034381           -0.93555
     88       0.00000          -0.022720           -0.61823
     89       0.00000          -0.009531           -0.25935
     90       0.00000          -0.004895           -0.13320
     91       0.00000           0.002091            0.05691
     92       0.00000           0.003528            0.09601
     93       0.00000           0.010117            0.27529
     94       0.00000           0.012081            0.32873
     95       0.00000           0.015881            0.43214
     96       0.00000           0.024729            0.67290
     97       0.00000           0.031181            0.84848
     98       0.00000           0.038612            1.05068
     99       0.00000           0.048196            1.31148
    100       0.00000           0.054834            1.49212
    101       0.00000           0.063003            1.71441
    102       0.00000           0.063923            1.73943
    103       0.00000           0.068678            1.86883
    104       0.00000           0.080150            2.18100
    105       0.00000           0.081480            2.21717
    106       0.00000           0.082319            2.24000
    107       0.00000           0.088483            2.40775
    108       0.00000           0.097607            2.65603
    109       0.00000           0.099196            2.69927
    110       0.00000           0.106001            2.88444
    111       0.00000           0.106526            2.89872
    112       0.00000           0.107783            2.93294
    113       0.00000           0.115412            3.14051
    114       0.00000           0.122749            3.34018
    115       0.00000           0.128230            3.48930
    116       0.00000           0.132775            3.61300
    117       0.00000           0.137517            3.74202
    118       0.00000           0.140679            3.82807
    119       0.00000           0.143447            3.90340
    120       0.00000           0.144578            3.93417
    121       0.00000           0.150532            4.09618
    122       0.00000           0.153562            4.17863
    123       0.00000           0.154607            4.20706
    124       0.00000           0.157665            4.29027
    125       0.00000           0.158510            4.31327
    126       0.00000           0.168671            4.58977
    127       0.00000           0.172956            4.70638
    128       0.00000           0.177339            4.82563
    129       0.00000           0.178910            4.86840
    130       0.00000           0.179676            4.88923
    131       0.00000           0.182340            4.96172
    132       0.00000           0.188549            5.13068
    133       0.00000           0.188873            5.13949
    134       0.00000           0.194556            5.29413
    135       0.00000           0.195374            5.31639
    136       0.00000           0.196654            5.35121
    137       0.00000           0.202433            5.50848
    138       0.00000           0.202872            5.52044
    139       0.00000           0.206651            5.62327
    140       0.00000           0.211759            5.76225
    141       0.00000           0.216470            5.89044
    142       0.00000           0.221384            6.02417
    143       0.00000           0.221722            6.03337
    144       0.00000           0.224277            6.10289
    145       0.00000           0.224565            6.11073
    146       0.00000           0.233104            6.34309
    147       0.00000           0.235032            6.39555
    148       0.00000           0.236703            6.44102
    149       0.00000           0.240433            6.54250
    150       0.00000           0.243517            6.62644
    151       0.00000           0.244610            6.65618
    152       0.00000           0.253041            6.88560
    153       0.00000           0.253540            6.89917
    154       0.00000           0.262869            7.15303
    155       0.00000           0.266115            7.24136
    156       0.00000           0.267561            7.28070
    157       0.00000           0.271886            7.39840
    158       0.00000           0.273514            7.44269
    159       0.00000           0.276158            7.51463
    160       0.00000           0.278777            7.58592
    161       0.00000           0.279179            7.59685
    162       0.00000           0.283185            7.70586
    163       0.00000           0.284016            7.72848
    164       0.00000           0.293308            7.98133
    165       0.00000           0.295649            8.04501
    166       0.00000           0.303229            8.25128
    167       0.00000           0.303598            8.26132
    168       0.00000           0.305912            8.32429
    169       0.00000           0.308949            8.40693
    170       0.00000           0.309408            8.41943
    171       0.00000           0.318628            8.67031
    172       0.00000           0.320530            8.72207
    173       0.00000           0.323809            8.81130
    174       0.00000           0.328136            8.92904
    175       0.00000           0.330395            8.99049
    176       0.00000           0.333457            9.07383
    177       0.00000           0.340894            9.27621
    178       0.00000           0.344832            9.38337
    179       0.00000           0.355312            9.66852
    180       0.00000           0.358943            9.76733

  Highest occupied state (VBM) at     -5.20377440 eV
  | Occupation number:      2.00000000

  Lowest unoccupied state (CBM) at    -2.33041806 eV
  | Occupation number:      0.00000000

  Overall HOMO-LUMO gap:      2.87335634 eV.

  Total energy components:
  | Sum of eigenvalues            :        -526.52711969 Ha      -14327.53190352 eV
  | XC energy correction          :        -135.90471644 Ha       -3698.15549436 eV
  | XC potential correction       :         174.57938129 Ha        4750.54667008 eV
  | Free-atom electrostatic energy:        -403.22589151 Ha      -10972.33477425 eV
  | Hartree energy correction     :         -33.91167778 Ha        -922.78370323 eV
  | Entropy correction            :           0.00000000 Ha           0.00000000 eV
  | ---------------------------
  | Total energy                  :        -924.99002413 Ha      -25170.25920528 eV
  | Total energy, T -> 0          :        -924.99002413 Ha      -25170.25920528 eV  <-- do not rely on this value for anything but (periodic) metals
  | Electronic free energy        :        -924.99002413 Ha      -25170.25920528 eV

  Derived energy quantities:
  | Kinetic energy                :         921.99989710 Ha       25088.89370907 eV
  | Electrostatic energy          :       -1711.08520480 Ha      -46560.99741998 eV
  | Energy correction for multipole
  | error in Hartree potential    :          -0.10312870 Ha          -2.80627480 eV
  | Sum of eigenvalues per atom                           :        -341.13171199 eV
  | Total energy (T->0) per atom                          :        -599.29188584 eV  <-- do not rely on this value for anything but (periodic) metals
  | Electronic free energy per atom                       :        -599.29188584 eV
  End evaluation of scaled ZORA corrections.
  | Time for scaled ZORA corrections           :        2.803 s           2.803 s
------------------------------------------------------------

  Energy and forces in a compact form:
  | Total energy uncorrected      :         -0.251702592052753E+05 eV
  | Total energy corrected        :         -0.251702592052753E+05 eV  <-- do not rely on this value for anything but (periodic) metals
  | Electronic free energy        :         -0.251702592052753E+05 eV

  ------------------------------------ 
  Start decomposition of the XC Energy 
  ------------------------------------ 
  X and C from original XC functional choice 
  Hartree-Fock Energy :          0.000000000 Ha              0.000000000 eV
  X Energy            :       -130.526497601 Ha          -3551.806713672 eV
  C Energy            :         -5.378218837 Ha           -146.348780688 eV
  Total XC Energy     :       -135.904716438 Ha          -3698.155494360 eV
  ------------------------------------ 
  LDA X and C from self-consistent density 
  X Energy LDA        :       -118.164342414 Ha          -3215.415355621 eV
  C Energy LDA        :        -10.396255325 Ha           -282.896500998 eV
  ------------------------------------ 
  End decomposition of the XC Energy 
  ------------------------------------ 

------------------------------------------------------------

------------------------------------------------------------------------------
  Final output of selected total energy values:

  The following output summarizes some interesting total energy values
  at the end of a run (AFTER all relaxation, molecular dynamics, etc.).

  | Total energy of the DFT / Hartree-Fock s.c.f. calculation      :         -25170.259205275 eV
  | Final zero-broadening corrected energy (caution - metals only) :         -25170.259205275 eV
  | For reference only, the value of 1 Hartree used in FHI-aims is :             27.211384500 eV

  Before relying on these values, please be sure to understand exactly which
  total energy value is referred to by a given number. Different objects may
  all carry the same name 'total energy'. Definitions:

  Total energy of the DFT / Hartree-Fock s.c.f. calculation:
  | Note that this energy does not include ANY quantities calculated after the
  | s.c.f. cycle, in particular not ANY RPA, MP2, etc. many-body perturbation terms.
  | Scalar relativistic effects have been included in the 'scaled ZORA' approximation.

  Final zero-broadening corrected energy:
  | For metallic systems only, a broadening of the occupation numbers at the Fermi
  | level can be extrapolated back to zero broadening by an electron-gas inspired
  | formula. For all systems that are not real metals, this value can be
  | meaningless and should be avoided.

------------------------------------------------------------------------------
  Methods described in the following list of references were used in this FHI-aims run.
  If you publish the results, please make sure to cite these reference if they apply.
  FHI-aims is an academic code, and for our developers (often, Ph.D. students
  and postdocs), scientific credit in the community is essential.
  Thank you for helping us!

  For any use of FHI-aims, please cite:

    Volker Blum, Ralf Gehrke, Felix Hanke, Paula Havu, Ville Havu,
    Xinguo Ren, Karsten Reuter, and Matthias Scheffler
    'Ab initio molecular simulations with numeric atom-centered orbitals'
    Computer Physics Communications 180, 2175-2196 (2009)
    http://dx.doi.org/10.1016/j.cpc.2009.06.022


  The scalable eigensolver library ELPA was used in your run.
  ELPA is essential especially for large systems on hundreds or thousands of CPUs.
  For ELPA, please cite:

    Andreas Marek, Volker Blum, Rainer Johanni, Ville Havu, Bruno Lang,
    Thomas Auckenthaler, Alexander Heinecke, Hans-Joachim Bungartz, and Hermann Lederer,
    'The ELPA Library - Scalable Parallel Eigenvalue Solutions
    for Electronic Structure Theory and Computational Science'
    The Journal of Physics: Condensed Matter 26, 213201 (2014).
    http://dx.doi.org/10.1088/0953-8984/26/21/213201


  The ELSI infrastructure was used in your run to solve the Kohn-Sham electronic structure.
  Please check out http://elsi-interchange.org to learn more.
  If scalability is important for your project, please acknowledge ELSI by citing:

    V. W-z. Yu, F. Corsetti, A. Garcia, W. P. Huhn, M. Jacquelin, W. Jia,
    B. Lange, L. Lin, J. Lu, W. Mi, A. Seifitokaldani, A. Vazquez-Mayagoitia,
    C. Yang, H. Yang, and V. Blum
    'ELSI: A unified software interface for Kohn-Sham electronic structure solvers'
    Computer Physics Communications 222, 267-285 (2018).
    http://dx.doi.org/10.1016/j.cpc.2017.09.007


  For the real-space grid partitioning and parallelization used in this calculation, please cite:

    Ville Havu, Volker Blum, Paula Havu, and Matthias Scheffler,
    'Efficient O(N) integration for all-electron electronic structure calculation'
    'using numerically tabulated basis functions'
    Journal of Computational Physics 228, 8367-8379 (2009).
    http://dx.doi.org/10.1016/j.jcp.2009.08.008

  Of course, there are many other important community references, e.g., those cited in the
  above references. Our list is limited to references that describe implementations in the
  FHI-aims code. The reason is purely practical (length of this list) - please credit others as well.

------------------------------------------------------------
          Leaving FHI-aims.
          Date     :  20210620, Time     :  174636.672

          Computational steps:
          | Number of self-consistency cycles          :           15
          | Number of SCF (re)initializations          :            1

          Detailed time accounting                     :  max(cpu_time)    wall_clock(cpu1)
          | Total time                                 :       52.807 s          52.989 s
          | Preparation time                           :        0.200 s           0.203 s
          | Boundary condition initalization           :        0.001 s           0.004 s
          | Grid partitioning                          :        0.519 s           0.523 s
          | Preloading free-atom quantities on grid    :        0.013 s           0.016 s
          | Free-atom superposition energy             :        0.044 s           0.044 s
          | Total time for integrations                :       29.642 s          29.650 s
          | Total time for solution of K.-S. equations :        1.710 s           1.733 s
          | Total time for density update              :       11.241 s          11.198 s
          | Total time for mixing                      :        0.098 s           0.123 s
          | Total time for Hartree multipole update    :        0.124 s           0.128 s
          | Total time for Hartree multipole sum       :        5.784 s           5.787 s
          | Total time for total energy evaluation     :        0.005 s           0.030 s
          | Total time for scaled ZORA corrections     :        2.803 s           2.803 s

          Partial memory accounting:
          | Residual value for overall tracked memory usage across tasks :     0.000000 MB (should be 0.000000 MB)
          | Peak values for overall tracked memory usage (after allocating zora_vector2):
          |   Minimum:       16.047 MB (on task 56)
          |   Maximum:       19.625 MB (on task 50)
          |   Average:       18.058 MB
          | Largest tracked array allocation (hamiltonian_shell):
          |   Minimum:        3.359 MB (on task  1)
          |   Maximum:        3.359 MB (on task  1)
          |   Average:        3.359 MB
          Note:  These values currently only include a subset of arrays which are explicitly tracked.
          The "true" memory usage will be greater.

          Have a nice day.
------------------------------------------------------------
