  MPI-parallelism will be employed.
------------------------------------------------------------
          Invoking FHI-aims ...
          Version 180607
          Git rev. (modified): 6724847 Fix JSON memory corruption in scf_solver
          Compiled on 2018/06/27 at 16:00:31 on host coe.psc.edu.

          When using FHI-aims, please cite the following reference:

          Volker Blum, Ralf Gehrke, Felix Hanke, Paula Havu,
          Ville Havu, Xinguo Ren, Karsten Reuter, and Matthias Scheffler,
          'Ab Initio Molecular Simulations with Numeric Atom-Centered Orbitals',
          Computer Physics Communications 180, 2175-2196 (2009)

          For any questions about FHI-aims, please visit the aimsclub website
          with its forums and wiki. Contributions to both the forums and the
          wiki are warmly encouraged - they are for you, and everyone is welcome there.

------------------------------------------------------------



  Date     :  20210620, Time     :  174959.404
  Time zero on CPU 1             :   0.391833000000000E+00  s.
  Internal wall clock time zero  :           393443399.404  s.

  FHI-aims created a unique identifier for this run for later identification
  aims_uuid : C9B544D7-531A-4D41-A235-847296B4C721

  Using       56 parallel tasks.
  Task        0 on host f001 reporting.
  Task        1 on host f001 reporting.
  Task        2 on host f001 reporting.
  Task        3 on host f001 reporting.
  Task        4 on host f001 reporting.
  Task        5 on host f001 reporting.
  Task        6 on host f001 reporting.
  Task        7 on host f001 reporting.
  Task        8 on host f001 reporting.
  Task        9 on host f001 reporting.
  Task       10 on host f001 reporting.
  Task       11 on host f001 reporting.
  Task       12 on host f001 reporting.
  Task       13 on host f001 reporting.
  Task       14 on host f001 reporting.
  Task       15 on host f001 reporting.
  Task       16 on host f001 reporting.
  Task       17 on host f001 reporting.
  Task       18 on host f001 reporting.
  Task       19 on host f001 reporting.
  Task       20 on host f001 reporting.
  Task       21 on host f001 reporting.
  Task       22 on host f001 reporting.
  Task       23 on host f001 reporting.
  Task       24 on host f001 reporting.
  Task       25 on host f001 reporting.
  Task       26 on host f001 reporting.
  Task       27 on host f001 reporting.
  Task       28 on host f001 reporting.
  Task       29 on host f001 reporting.
  Task       30 on host f001 reporting.
  Task       31 on host f001 reporting.
  Task       32 on host f001 reporting.
  Task       33 on host f001 reporting.
  Task       34 on host f001 reporting.
  Task       35 on host f001 reporting.
  Task       36 on host f001 reporting.
  Task       37 on host f001 reporting.
  Task       38 on host f001 reporting.
  Task       39 on host f001 reporting.
  Task       40 on host f001 reporting.
  Task       41 on host f001 reporting.
  Task       42 on host f001 reporting.
  Task       43 on host f001 reporting.
  Task       44 on host f001 reporting.
  Task       45 on host f001 reporting.
  Task       46 on host f001 reporting.
  Task       47 on host f001 reporting.
  Task       48 on host f001 reporting.
  Task       49 on host f001 reporting.
  Task       50 on host f001 reporting.
  Task       51 on host f001 reporting.
  Task       52 on host f001 reporting.
  Task       53 on host f001 reporting.
  Task       54 on host f001 reporting.
  Task       55 on host f001 reporting.

  Performing system and environment tests:
  *** Environment variable OMP_NUM_THREADS is not set
  *** For performance reasons you might want to set it to 1
  | Stacksize not measured: no C compiler
  | Checking for scalapack...
  | Testing pdtran()...
  | All pdtran() tests passed.

  Obtaining array dimensions for all initial allocations:
  
  -----------------------------------------------------------------------
  Parsing control.in (first pass over file, find array dimensions only).
  The contents of control.in will be repeated verbatim below
  unless switched off by setting 'verbatim_writeout .false.' .
  in the first line of control.in .
  -----------------------------------------------------------------------
  
  #===============================================================================
  # FHI-aims file: ./Runs/es/control.in
  # Created using the Atomic Simulation Environment (ASE)
  # Mon Jan 13 16:04:38 2020
  #===============================================================================
  xc                                 pbe
  relativistic                       zora scalar 1e-12
  occupation_type                    gaussian 0.0001
  load_balancing                     .true.
  KS_method                          scalapack_fast
  mixer                              pulay
  n_max_pulay                        5
  charge_mix_param                   0.4
  sc_accuracy_etot                   1e-6
  sc_accuracy_eev                    1e-4
  sc_accuracy_rho                    1e-6
  sc_iter_limit                      100
  prodbas_threshold                  1e-4
  basis_threshold                    1e-5
  override_illconditioning           .true.
  use_logsbt                         .true.
  spin                               none
  charge                             0
  #===============================================================================
  
  ################################################################################
  #
  #  FHI-aims code project
  # Volker Blum, Fritz Haber Institute Berlin, 2009
  #
  #  Suggested "tight" defaults for H atom (to be pasted into control.in file)
  #
  ################################################################################
    species        H
  #     global species definitions
      nucleus             1
      mass                1.00794
  #
      l_hartree           6
  #
      cut_pot             4.0  2.0  1.0
      basis_dep_cutoff    1e-4
  #
      radial_base         24 7.0
      radial_multiplier   2
      angular_grids       specified
        division   0.1930   50
        division   0.3175  110
        division   0.4293  194
        division   0.5066  302
        division   0.5626  434
  #      division   0.5922  590
  #      division   0.6227  974
  #      division   0.6868 1202
  #      outer_grid  770
        outer_grid  434
  ################################################################################
  #
  #  Definition of "minimal" basis
  #
  ################################################################################
  #     valence basis states
      valence      1  s   1.
  #     ion occupancy
      ion_occ      1  s   0.5
  ################################################################################
  #
  #  Suggested additional basis functions. For production calculations,
  #  uncomment them one after another (the most important basis functions are
  #  listed first).
  #
  #  Basis constructed for dimers: 0.5 A, 0.7 A, 1.0 A, 1.5 A, 2.5 A
  #
  ################################################################################
  #  "First tier" - improvements: -1014.90 meV to -62.69 meV
       hydro 2 s 2.1
       hydro 2 p 3.5
  #  "Second tier" - improvements: -12.89 meV to -1.83 meV
       hydro 1 s 0.85
       hydro 2 p 3.7
       hydro 2 s 1.2
       hydro 3 d 7
  #  "Third tier" - improvements: -0.25 meV to -0.12 meV
  #     hydro 4 f 11.2
  #     hydro 3 p 4.8
  #     hydro 4 d 9
  #     hydro 3 s 3.2
  ################################################################################
  #
  # For methods that use the localized form of the "resolution of identity" for
  # the two-electron Coulomb operator (RI_method LVL), particularly Hartree-Fock and
  # hybrid density functional calculations, the highest accuracy can be obtained by
  # uncommenting the line beginning with "for_aux"  below, thus adding an extra g radial
  # function to the construction of the product basis set for the expansion.
  # See Ref. New J. Phys. 17, 093020 (2015) for more information, particularly Figs. 1 and 6.
  #
  ################################################################################
  #
  # for_aux hydro 5 g 6.0
  ################################################################################
  #
  #  FHI-aims code project
  # Volker Blum, Fritz Haber Institute Berlin, 2009
  #
  #  Suggested "tight" defaults for C atom (to be pasted into control.in file)
  #
  ################################################################################
    species        C
  #     global species definitions
      nucleus             6
      mass                12.0107
  #
      l_hartree           6
  #
      cut_pot             4.0  2.0  1.0
      basis_dep_cutoff    1e-4
  #
      radial_base         34 7.0
      radial_multiplier   2
      angular_grids specified
        division   0.2187   50
        division   0.4416  110
        division   0.6335  194
        division   0.7727  302
        division   0.8772  434
  #      division   0.9334  590
  #      division   0.9924  770
  #      division   1.0230  974
  #      division   1.5020 1202
  #     outer_grid  974
        outer_grid  434
  ################################################################################
  #
  #  Definition of "minimal" basis
  #
  ################################################################################
  #     valence basis states
      valence      2  s   2.
      valence      2  p   2.
  #     ion occupancy
      ion_occ      2  s   1.
      ion_occ      2  p   1.
  ################################################################################
  #
  #  Suggested additional basis functions. For production calculations,
  #  uncomment them one after another (the most important basis functions are
  #  listed first).
  #
  #  Constructed for dimers: 1.0 A, 1.25 A, 1.5 A, 2.0 A, 3.0 A
  #
  ################################################################################
  #  "First tier" - improvements: -1214.57 meV to -155.61 meV
       hydro 2 p 1.7
       hydro 3 d 6
       hydro 2 s 4.9
  #  "Second tier" - improvements: -67.75 meV to -5.23 meV
       hydro 4 f 9.8
       hydro 3 p 5.2
       hydro 3 s 4.3
       hydro 5 g 14.4
       hydro 3 d 6.2
  #  "Third tier" - improvements: -2.43 meV to -0.60 meV
  #     hydro 2 p 5.6
  #     hydro 2 s 1.4
  #     hydro 3 d 4.9
  #     hydro 4 f 11.2
  #  "Fourth tier" - improvements: -0.39 meV to -0.18 meV
  #     hydro 2 p 2.1
  #     hydro 5 g 16.4
  #     hydro 4 d 13.2
  #     hydro 3 s 13.6
  #     hydro 4 f 17.6
  #  Further basis functions - improvements: -0.08 meV and below
  #     hydro 3 s 2
  #     hydro 3 p 6
  #     hydro 4 d 20
  ################################################################################
  #
  # For methods that use the localized form of the "resolution of identity" for
  # the two-electron Coulomb operator (RI_method LVL), particularly Hartree-Fock and
  # hybrid density functional calculations, the highest accuracy can be obtained by
  # uncommenting the line beginning with "for_aux"  below, thus adding an extra g radial
  # function to the construction of the product basis set for the expansion.
  # See Ref. New J. Phys. 17, 093020 (2015) for more information, particularly Figs. 1 and 6.
  #
  ################################################################################
  #
  # for_aux hydro 5 g 6.0
  
  -----------------------------------------------------------------------
  Completed first pass over input file control.in .
  -----------------------------------------------------------------------
  
  
  -----------------------------------------------------------------------
  Parsing geometry.in (first pass over file, find array dimensions only).
  The contents of geometry.in will be repeated verbatim below
  unless switched off by setting 'verbatim_writeout .false.' .
  in the first line of geometry.in .
  -----------------------------------------------------------------------
  
  #=======================================================
  # FHI-aims file: geometry.in
  # Created using the Atomic Simulation Environment (ASE)
  # Sun Jun 20 15:47:02 2021
  #=======================================================
  atom 19.3311500000000009 29.2948920000000008 50.9660289999999989 H
  atom 18.6833109999999998 29.7031069999999993 51.7427940000000035 C
  atom 18.1665920000000014 28.8823989999999995 52.7231370000000013 C
  atom 18.4093510000000009 31.0596959999999989 51.7566289999999967 C
  atom 17.3797180000000004 29.4205310000000004 53.7094110000000029 C
  atom 18.3964140000000000 27.8160409999999985 52.7132549999999966 H
  atom 17.6338919999999995 31.6248480000000001 52.7527850000000029 C
  atom 18.8444910000000014 31.6929589999999983 50.9848059999999990 H
  atom 16.9452630000000006 28.7859179999999988 54.4812340000000006 H
  atom 17.1141289999999984 30.7827489999999990 53.7410349999999966 C
  atom 17.3568880000000014 33.0838850000000022 52.7705740000000034 C
  atom 16.4746610000000011 31.1862360000000010 54.5259029999999996 H
  atom 17.1224999999999987 33.7740000000000009 51.5787440000000004 C
  atom 17.3500389999999989 33.7953899999999976 53.9703090000000003 C
  atom 17.1201410000000003 33.2190930000000009 50.6416850000000025 H
  atom 16.8888730000000002 35.1452239999999989 51.5649090000000001 C
  atom 17.1156509999999997 35.1733690000000010 53.9841440000000006 C
  atom 17.5780349999999999 33.2794359999999969 54.9022289999999984 H
  atom 16.6141520000000007 35.8589819999999975 50.2900660000000030 C
  atom 16.8858290000000011 35.8274589999999975 52.7824320000000000 C
  atom 17.1042360000000002 35.9299070000000000 55.2688699999999997 C
  atom 15.9071829999999999 35.2499240000000000 49.2583330000000004 C
  atom 17.0509659999999990 37.1772929999999988 50.1003219999999985 C
  atom 16.6518219999999992 36.8904399999999981 52.7911289999999980 H
  atom 16.6019760000000005 35.3546229999999966 56.4330280000000002 C
  atom 17.6019299999999994 37.2223249999999979 55.3301409999999976 C
  atom 15.5295749999999995 34.2353530000000035 49.3836429999999993 H
  atom 15.6286570000000005 35.9400389999999987 48.0882450000000006 C
  atom 16.7640689999999992 37.8550249999999977 48.9262810000000030 C
  atom 17.6353380000000008 37.6681420000000031 50.8772840000000031 H
  atom 16.1761969999999984 34.3523229999999984 56.3994280000000003 H
  atom 16.6019760000000005 36.0638769999999980 57.6189279999999968 C
  atom 18.0452130000000004 37.6684800000000024 54.4407160000000019 H
  atom 17.6019299999999994 37.9248249999999985 56.5259240000000034 C
  atom 15.0531129999999997 35.4527929999999998 47.3010050000000035 H
  atom 16.0540559999999992 37.2392120000000020 47.9202429999999993 C
  atom 17.1165640000000003 38.8791650000000004 48.8003780000000020 H
  atom 16.1898179999999989 35.6077030000000008 58.5196189999999987 H
  atom 17.0989089999999990 37.3371569999999977 57.6683400000000006 C
  atom 18.0137830000000001 38.9333159999999978 56.5632790000000014 H
  atom 15.8285719999999994 37.7741929999999968 46.9984030000000033 H
  atom 17.1115420000000000 37.8820440000000005 58.6117240000000024 H
  
  -----------------------------------------------------------------------
  Completed first pass over input file geometry.in .
  -----------------------------------------------------------------------
  

  Basic array size parameters:
  | Number of species                 :        2
  | Number of atoms                   :       42
  | Max. basis fn. angular momentum   :        4
  | Max. atomic/ionic basis occupied n:        2
  | Max. number of basis fn. types    :        2
  | Max. radial fns per species/type  :        8
  | Max. logarithmic grid size        :     1277
  | Max. radial integration grid size :       69
  | Max. angular integration grid size:      434
  | Max. angular grid division number :        8
  | Radial grid for Hartree potential :     1277
  | Number of spin channels           :        1

------------------------------------------------------------
          Reading file control.in.
------------------------------------------------------------
  XC: Using PBE gradient-corrected functionals.
  Scalar relativistic treatment of kinetic energy: ZORA.
  Threshold value for ZORA:   0.100000E-11
  Occupation type: Gaussian broadening, width =   0.100000E-03 eV.
  Since 'load_balancing .true.' is present in control.in, automatically turning on 'use_local_index .true.'.
  Using load balancing for integrations.
  Kohn-Sham electronic structure solved by the ELSI library.
  Using pulay charge density mixing.
  Pulay mixing - number of memorized iterations:    5
  Charge density mixing - mixing parameter:     0.4000
  Convergence accuracy of total energy:  0.1000E-05
  Convergence accuracy of sum of eigenvalues:  0.1000E-03
  Convergence accuracy of self-consistent charge density:  0.1000E-05
  Maximum number of s.-c. iterations  :   100
  * Ignoring prodbas_threshold
  Threshold for basis singularities:  0.1000E-04
  override_illconditioning: Explicitly overriding any built-in checks for an ill-conditioned overlap matrix.
  *** WARNING: If you use this flag, you should really know what you are doing.
  *** DO NOT keep this flag set by default in all your control.in files.
  Using 1D integrations for auxiliary 2-center integrals.
  Spin treatment: No spin polarisation.
  Charge =   0.000000E+00: Neutral system requested explicitly.
 
  Reading configuration options for species H                   .
  | Found nuclear charge :   1.0000
  | Found atomic mass :    1.00794000000000      amu
  | Found l_max for Hartree potential  :   6
  | Found cutoff potl. onset [A], width [A], scale factor :    4.00000    2.00000    1.00000
  | Threshold for basis-dependent cutoff potential is   0.100000E-03
  | Found data for basic radial integration grid :    24 points, outermost radius =    7.000 A
  | Found multiplier for basic radial grid :   2
  | Found angular grid specification: user-specified.
  | Specified grid contains     6 separate shells.
  | Check grid settings after all constraints further below.
  | Found free-atom valence shell :  1 s   1.000
  | No ionic wave fns used. Skipping ion_occ.
  | Found hydrogenic basis function :  2 s   2.100
  | Found hydrogenic basis function :  2 p   3.500
  | Found hydrogenic basis function :  1 s   0.850
  | Found hydrogenic basis function :  2 p   3.700
  | Found hydrogenic basis function :  2 s   1.200
  | Found hydrogenic basis function :  3 d   7.000
  Species H                   : Missing cutoff potential type.
  Defaulting to exp(1/x)/(1-x)^2 type cutoff potential.
  Species H : No 'logarithmic' tag. Using default grid for free atom:
  | Default logarithmic grid data [bohr] : 0.1000E-03 0.1000E+03 0.1012E+01
  Species H : On-site basis accuracy parameter (for Gram-Schmidt orthonormalisation) not specified.
  Using default value basis_acc =  0.1000000E-03.
  Species H                   : Using default innermost maximum threshold i_radial=  2 for radial functions.
  Species H                   : Default cutoff onset for free atom density etc. : 0.40000000E+01 AA.
  Species H                   : Basic radial grid will be enhanced according to radial_multiplier =   2, to contain    49 grid points.
 
  Reading configuration options for species C                   .
  | Found nuclear charge :   6.0000
  | Found atomic mass :    12.0107000000000      amu
  | Found l_max for Hartree potential  :   6
  | Found cutoff potl. onset [A], width [A], scale factor :    4.00000    2.00000    1.00000
  | Threshold for basis-dependent cutoff potential is   0.100000E-03
  | Found data for basic radial integration grid :    34 points, outermost radius =    7.000 A
  | Found multiplier for basic radial grid :   2
  | Found angular grid specification: user-specified.
  | Specified grid contains     6 separate shells.
  | Check grid settings after all constraints further below.
  | Found free-atom valence shell :  2 s   2.000
  | Found free-atom valence shell :  2 p   2.000
  | No ionic wave fns used. Skipping ion_occ.
  | No ionic wave fns used. Skipping ion_occ.
  | Found hydrogenic basis function :  2 p   1.700
  | Found hydrogenic basis function :  3 d   6.000
  | Found hydrogenic basis function :  2 s   4.900
  | Found hydrogenic basis function :  4 f   9.800
  | Found hydrogenic basis function :  3 p   5.200
  | Found hydrogenic basis function :  3 s   4.300
  | Found hydrogenic basis function :  5 g  14.400
  | Found hydrogenic basis function :  3 d   6.200
  Species C                   : Missing cutoff potential type.
  Defaulting to exp(1/x)/(1-x)^2 type cutoff potential.
  Species C : No 'logarithmic' tag. Using default grid for free atom:
  | Default logarithmic grid data [bohr] : 0.1000E-03 0.1000E+03 0.1012E+01
  Species C : On-site basis accuracy parameter (for Gram-Schmidt orthonormalisation) not specified.
  Using default value basis_acc =  0.1000000E-03.
  Species C                   : Using default innermost maximum threshold i_radial=  2 for radial functions.
  Species C                   : Default cutoff onset for free atom density etc. : 0.40000000E+01 AA.
  Species C                   : Basic radial grid will be enhanced according to radial_multiplier =   2, to contain    69 grid points.
 
  Finished reading input file 'control.in'. Consistency checks are next.
 
  MPI_IN_PLACE appears to work with this MPI implementation.
  | Keeping use_mpi_in_place .true. (see manual).
  Target number of points in a grid batch is not set. Defaulting to  100
  Method for grid partitioning is not set. Defaulting to parallel hash+maxmin partitioning.
  Batch size limit is not set. Defaulting to    200
  By default, will store active basis functions for each batch.
  If in need of memory, prune_basis_once .false. can be used to disable this option.
  communication_type for Hartree potential was not specified.
  Defaulting to calc_hartree .
  Pulay mixer: Number of initial linear mixing iterations not set.
  Defaulting to    0 iterations.
  Work space size for distributed Hartree potential not set.
  Defaulting to   0.200000E+03 MB.
  Algorithm-dependent basis array size parameters:
  | n_max_pulay                         :        5
  Presetting      1001 iterations before the initial mixing cycle
  is restarted anyway using the sc_init_iter criterion / keyword.
  Presetting a factor      1.000 between actual scf density residual
  and density convergence criterion sc_accuracy_rho below which sc_init_iter
  takes no effect.
  Calculation of forces was not defined in control.in. No forces will be calculated.
  Geometry relaxation not requested: no relaxation will be performed.
  No accuracy limit for integral partition fn. given. Defaulting to  0.1000E-14.
  No threshold value for u(r) in integrations given. Defaulting to  0.1000E-05.
  No accuracy for occupation numbers given. Defaulting to  0.1000E-12.
  No threshold value for occupation numbers given. Defaulting to  0.0000E+00.
  No accuracy for fermi level given. Defaulting to  0.1000E-19.
  Maximum # of iterations to find E_F not set. Defaulting to  200.
  Will not use alltoall communication since running on < 1024 CPUs.
  partition_type (choice of integration weights) for integrals was not specified.
  | Using a version of the partition function of Stratmann and coworkers ('stratmann_sparse').
  | At each grid point, the set of atoms used to build the partition table is smoothly restricted to
  | only those atoms whose free-atom density would be non-zero at that grid point.
  Partitioning for Hartree potential was not defined. Using partition_type for integrals.
  | Adjusted default value of keyword multip_moments_threshold to:       0.10000000E-11
  | This value may affect high angular momentum components of the Hartree potential in periodic systems.
  No q(lm)/r^(l+1) cutoff set for long-range Hartree potential.
  | Using default value of  0.100000E-09 .
  | Verify using the multipole_threshold keyword.
  Defaulting to new monopole extrapolation.
  Density update method: automatic selection selected.
 * Warning: use_local_index and/or load_balancing needs packed_matrix_format = index
 * Changing the default setting to packed_matrix_format = index
------------------------------------------------------------


------------------------------------------------------------
          Reading geometry description geometry.in.
------------------------------------------------------------
  Input structure read successfully.
  The structure contains       42 atoms,  and a total of        162.000 electrons.

  Input geometry:
  | No unit cell requested.
  | Atomic structure:
  |       Atom                x [A]            y [A]            z [A]
  |    1: Species H            19.33115000       29.29489200       50.96602900
  |    2: Species C            18.68331100       29.70310700       51.74279400
  |    3: Species C            18.16659200       28.88239900       52.72313700
  |    4: Species C            18.40935100       31.05969600       51.75662900
  |    5: Species C            17.37971800       29.42053100       53.70941100
  |    6: Species H            18.39641400       27.81604100       52.71325500
  |    7: Species C            17.63389200       31.62484800       52.75278500
  |    8: Species H            18.84449100       31.69295900       50.98480600
  |    9: Species H            16.94526300       28.78591800       54.48123400
  |   10: Species C            17.11412900       30.78274900       53.74103500
  |   11: Species C            17.35688800       33.08388500       52.77057400
  |   12: Species H            16.47466100       31.18623600       54.52590300
  |   13: Species C            17.12250000       33.77400000       51.57874400
  |   14: Species C            17.35003900       33.79539000       53.97030900
  |   15: Species H            17.12014100       33.21909300       50.64168500
  |   16: Species C            16.88887300       35.14522400       51.56490900
  |   17: Species C            17.11565100       35.17336900       53.98414400
  |   18: Species H            17.57803500       33.27943600       54.90222900
  |   19: Species C            16.61415200       35.85898200       50.29006600
  |   20: Species C            16.88582900       35.82745900       52.78243200
  |   21: Species C            17.10423600       35.92990700       55.26887000
  |   22: Species C            15.90718300       35.24992400       49.25833300
  |   23: Species C            17.05096600       37.17729300       50.10032200
  |   24: Species H            16.65182200       36.89044000       52.79112900
  |   25: Species C            16.60197600       35.35462300       56.43302800
  |   26: Species C            17.60193000       37.22232500       55.33014100
  |   27: Species H            15.52957500       34.23535300       49.38364300
  |   28: Species C            15.62865700       35.94003900       48.08824500
  |   29: Species C            16.76406900       37.85502500       48.92628100
  |   30: Species H            17.63533800       37.66814200       50.87728400
  |   31: Species H            16.17619700       34.35232300       56.39942800
  |   32: Species C            16.60197600       36.06387700       57.61892800
  |   33: Species H            18.04521300       37.66848000       54.44071600
  |   34: Species C            17.60193000       37.92482500       56.52592400
  |   35: Species H            15.05311300       35.45279300       47.30100500
  |   36: Species C            16.05405600       37.23921200       47.92024300
  |   37: Species H            17.11656400       38.87916500       48.80037800
  |   38: Species H            16.18981800       35.60770300       58.51961900
  |   39: Species C            17.09890900       37.33715700       57.66834000
  |   40: Species H            18.01378300       38.93331600       56.56327900
  |   41: Species H            15.82857200       37.77419300       46.99840300
  |   42: Species H            17.11154200       37.88204400       58.61172400
  |

  | The smallest distance between any two atoms is         1.08846843 AA.
  |
  | The first atom of this pair is atom number                     20 .
  | The second atom of this pair is atom number                    24 .

  Number of empty states per atom not set in control.in - providing a guess from actual geometry.
  | Total number of empty states used during s.c.f. cycle:       99
  If you use a very high smearing, use empty_states (per atom!) in control.in to increase this value.

  Structure-dependent array size parameters: 
  | Maximum number of distinct radial functions  :       18
  | Maximum number of basis functions            :     1206
  | Number of Kohn-Sham states (occupied + empty):      180
------------------------------------------------------------

------------------------------------------------------------
          Preparing all fixed parts of the calculation.
------------------------------------------------------------
  Determining machine precision:
    2.225073858507201E-308
  Setting up grids for atomic and cluster calculations.

  Creating wave function, potential, and density for free atoms.

  Species: H

  List of occupied orbitals and eigenvalues:
    n    l              occ      energy [Ha]    energy [eV]
    1    0           1.0000        -0.238386        -6.4868


  Species: C

  List of occupied orbitals and eigenvalues:
    n    l              occ      energy [Ha]    energy [eV]
    1    0           2.0000       -10.049212      -273.4530
    2    0           2.0000        -0.504761       -13.7352
    2    1           2.0000        -0.193631        -5.2690

  Creating fixed part of basis set: Ionic, confined, hydrogenic.
 
  H                    hydrogenic:
 
  List of hydrogenic basis orbitals: 
    n    l      effective z      eigenvalue [eV]  inner max. [A]     outer max. [A]     outer radius [A]   
    2    0         2.100000       -14.9965           0.193243           1.317208           5.373006
    2    1         3.500000       -41.6672           0.602369           0.602369           4.056063
    1    0         0.850000        -9.8292           0.624871           0.624871           5.373006
    2    1         3.700000       -46.5653           0.573622           0.573622           3.910002
    2    0         1.200000        -4.5995           0.334980           2.228188           5.505995
    3    2         7.000000       -74.0753           0.680699           0.680699           3.769201
 
 
  C                    hydrogenic:
 
  List of hydrogenic basis orbitals: 
    n    l      effective z      eigenvalue [eV]  inner max. [A]     outer max. [A]     outer radius [A]   
    2    1         1.700000        -9.8152           1.245706           1.245706           5.401630
    3    2         6.000000       -54.4226           0.792453           0.792453           4.178599
    2    0         4.900000       -81.6681           0.082559           0.562749           3.353238
    4    3         9.800000       -81.6681           0.863254           0.863254           4.028125
    3    1         5.200000       -40.8774           0.305389           1.215618           4.898362
    3    0         4.300000       -27.9508           0.091041           1.610311           5.401630
    5    4        14.400000      -112.8510           0.917666           0.917666           3.883070
    3    2         6.200000       -58.1113           0.763917           0.763917           4.077671
 

  Adding cutoff potential to free-atom effective potential.
  Creating atomic-like basis functions for current effective potential.

  Species H                   :

  List of atomic basis orbitals and eigenvalues:
    n    l      energy [Ha]    energy [eV]    outer radius [A]
    1    0        -0.238386        -6.4868       5.373006


  Species C                   :

  List of atomic basis orbitals and eigenvalues:
    n    l      energy [Ha]    energy [eV]    outer radius [A]
    1    0       -10.049212      -273.4530       1.934409
    2    0        -0.504761       -13.7352       5.271162
    2    1        -0.193631        -5.2690       5.401630

  Assembling full basis from fixed parts.
  | Species H :   atomic orbital   1 s accepted.
  | Species H :    hydro orbital   2 s accepted.
  | Species H :    hydro orbital   1 s accepted.
  | Species H :    hydro orbital   2 s accepted.
  | Species H :    hydro orbital   2 p accepted.
  | Species H :    hydro orbital   2 p accepted.
  | Species H :    hydro orbital   3 d accepted.
  | Species C :   atomic orbital   1 s accepted.
  | Species C :    hydro orbital   2 s accepted.
  | Species C :   atomic orbital   2 s accepted.
  | Species C :    hydro orbital   3 s accepted.
  | Species C :    hydro orbital   3 p accepted.
  | Species C :   atomic orbital   2 p accepted.
  | Species C :    hydro orbital   2 p accepted.
  | Species C :    hydro orbital   3 d accepted.
  | Species C :    hydro orbital   3 d accepted.
  | Species C :    hydro orbital   4 f accepted.
  | Species C :    hydro orbital   5 g accepted.
 
  Basis size parameters after reduction:
  | Total number of radial functions:       18
  | Total number of basis functions :     1206
 
  Per-task memory consumption for arrays in subroutine allocate_ext:
  |           4.441936MB.
  Testing on-site integration grid accuracy.
  |  Species  Function  <phi|h_atom|phi> (log., in eV)  <phi|h_atom|phi> (rad., in eV)
           1        1                 -6.4870767962                 -6.4871688290
           1        2                 13.5032046589                 13.5028982997
           1        3                 32.8195184817                 32.8119941656
           1        4                 33.8513856511                 33.7670005767 ***
           1        5                 28.8544614965                 28.8544615203
           1        6                 59.6326952547                 59.6327656460
           1        7                 60.2719308513                 60.2719305949
           2        8               -273.4529726040               -273.4529710464
           2        9                -10.7721037319                -10.7721022101
           2       10                 17.6044132601                 17.6044162063
           2       11                 53.7706460658                 53.7706913770
           2       12                 15.0973290362                 15.0973256030
           2       13                  3.8545134692                  3.8545724687
           2       14                 12.1156992592                 12.1182024431
           2       15                 29.4352039302                 29.4352041816
           2       16                 54.8741144708                 54.8740268729
           2       17                 59.3556032049                 59.3556031382
           2       18                 93.4551837154                 93.4551838009
 * Note: Onsite integrals marked "***" above are less accurate than
 * onsite_accuracy_threshold =    0.03000 eV. Usually, this is harmless.
 * When in doubt, tighten the "radial" and/or "radial_multiplier" flags to check.

  Preparing densities etc. for the partition functions (integrals / Hartree potential).

  Preparations completed.
  max(cpu_time)          :      0.195 s.
  Wall clock time (cpu1) :      0.213 s.
------------------------------------------------------------

------------------------------------------------------------
          Begin self-consistency loop: Initialization.

          Date     :  20210620, Time     :  174959.788
------------------------------------------------------------

  Initializing index lists of integration centers etc. from given atomic structure:
  | Number of centers in hartree potential         :        42
  | Number of centers in hartree multipole         :        42
  | Number of centers in electron density summation:        42
  | Number of centers in basis integrals           :        42
  | Number of centers in integrals                 :        42
  | Number of centers in hamiltonian               :        42
  * Using 56 tasks for Scalapack Eigenvalue solver.
  Detailed listing of tasks and assigned k-points:
  (for non-periodic systems, the "k-point" denotes an internal label only)
   Task     0 k-point     1 on f001
   Task     1 k-point     1 on f001
   Task     2 k-point     1 on f001
   Task     3 k-point     1 on f001
   Task     4 k-point     1 on f001
   Task     5 k-point     1 on f001
   Task     6 k-point     1 on f001
   Task     7 k-point     1 on f001
   Task     8 k-point     1 on f001
   Task     9 k-point     1 on f001
   Task    10 k-point     1 on f001
   Task    11 k-point     1 on f001
   Task    12 k-point     1 on f001
   Task    13 k-point     1 on f001
   Task    14 k-point     1 on f001
   Task    15 k-point     1 on f001
   Task    16 k-point     1 on f001
   Task    17 k-point     1 on f001
   Task    18 k-point     1 on f001
   Task    19 k-point     1 on f001
   Task    20 k-point     1 on f001
   Task    21 k-point     1 on f001
   Task    22 k-point     1 on f001
   Task    23 k-point     1 on f001
   Task    24 k-point     1 on f001
   Task    25 k-point     1 on f001
   Task    26 k-point     1 on f001
   Task    27 k-point     1 on f001
   Task    28 k-point     1 on f001
   Task    29 k-point     1 on f001
   Task    30 k-point     1 on f001
   Task    31 k-point     1 on f001
   Task    32 k-point     1 on f001
   Task    33 k-point     1 on f001
   Task    34 k-point     1 on f001
   Task    35 k-point     1 on f001
   Task    36 k-point     1 on f001
   Task    37 k-point     1 on f001
   Task    38 k-point     1 on f001
   Task    39 k-point     1 on f001
   Task    40 k-point     1 on f001
   Task    41 k-point     1 on f001
   Task    42 k-point     1 on f001
   Task    43 k-point     1 on f001
   Task    44 k-point     1 on f001
   Task    45 k-point     1 on f001
   Task    46 k-point     1 on f001
   Task    47 k-point     1 on f001
   Task    48 k-point     1 on f001
   Task    49 k-point     1 on f001
   Task    50 k-point     1 on f001
   Task    51 k-point     1 on f001
   Task    52 k-point     1 on f001
   Task    53 k-point     1 on f001
   Task    54 k-point     1 on f001
   Task    55 k-point     1 on f001
  Tasks:    56 split into      8 X      7 BLACS grid
  Calculating block size based on n_basis =         1206 max_nprow =            8 max_npcol =            7
  ScaLAPACK block size set to:           16
  Allocating        0.225 MB for ovlp
  Allocating        0.225 MB for ham
  Allocating        0.225 MB for eigenvec
  Required Scalapack workspace - INTEGER:            1 REAL:             1
  Partitioning the integration grid into batches with parallel hashing+maxmin method.
  | Number of batches:     6640
  | Maximal batch size:     200
  | Minimal batch size:      35
  | Average batch size:     104.514
  | Standard deviation of batch sizes:      27.189

  Integration load balanced across     56 MPI tasks.
  Work distribution over tasks is as follows:
  Task      0 has      12487 integration points.
  Task      1 has      12435 integration points.
  Task      2 has      12396 integration points.
  Task      3 has      12391 integration points.
  Task      4 has      12386 integration points.
  Task      5 has      12392 integration points.
  Task      6 has      12361 integration points.
  Task      7 has      12496 integration points.
  Task      8 has      12416 integration points.
  Task      9 has      12297 integration points.
  Task     10 has      12511 integration points.
  Task     11 has      12338 integration points.
  Task     12 has      12388 integration points.
  Task     13 has      12322 integration points.
  Task     14 has      12460 integration points.
  Task     15 has      12420 integration points.
  Task     16 has      12363 integration points.
  Task     17 has      12404 integration points.
  Task     18 has      12385 integration points.
  Task     19 has      12485 integration points.
  Task     20 has      12291 integration points.
  Task     21 has      12467 integration points.
  Task     22 has      12384 integration points.
  Task     23 has      12274 integration points.
  Task     24 has      12412 integration points.
  Task     25 has      12409 integration points.
  Task     26 has      12367 integration points.
  Task     27 has      12311 integration points.
  Task     28 has      12443 integration points.
  Task     29 has      12462 integration points.
  Task     30 has      12340 integration points.
  Task     31 has      12493 integration points.
  Task     32 has      12366 integration points.
  Task     33 has      12338 integration points.
  Task     34 has      12310 integration points.
  Task     35 has      12464 integration points.
  Task     36 has      12395 integration points.
  Task     37 has      12348 integration points.
  Task     38 has      12392 integration points.
  Task     39 has      12380 integration points.
  Task     40 has      12480 integration points.
  Task     41 has      12251 integration points.
  Task     42 has      12458 integration points.
  Task     43 has      12380 integration points.
  Task     44 has      12374 integration points.
  Task     45 has      12481 integration points.
  Task     46 has      12336 integration points.
  Task     47 has      12461 integration points.
  Task     48 has      12282 integration points.
  Task     49 has      12495 integration points.
  Task     50 has      12433 integration points.
  Task     51 has      12270 integration points.
  Task     52 has      12414 integration points.
  Task     53 has      12363 integration points.
  Task     54 has      12383 integration points.
  Task     55 has      12332 integration points.
  Initializing partition tables, free-atom densities, potentials, etc. across the integration grid (initialize_grid_storage).
  | initialize_grid_storage: Actual outermost partition radius vs. multipole_radius_free
  | (-- VB: in principle, multipole_radius_free should be larger, hence this output)
  | Species        1: Confinement radius =              6.000000000000000 AA, multipole_radius_free =              6.071692442739658 AA.
  | Species        1: outer_partition_radius set to              6.071692442739658 AA .
  | Species        2: Confinement radius =              6.000000000000000 AA, multipole_radius_free =              6.029870734432609 AA.
  | Species        2: outer_partition_radius set to              6.029870734432609 AA .
  | The sparse table of interatomic distances needs     20.8360 kbyte instead of    14.1120 kbyte of memory.
  | Using the partition_type stratmann_smoother will reduce your memory usage.
  | Net number of integration points:   693972
  | of which are non-zero points    :   557876
  Renormalizing the initial density to the exact electron count on the 3D integration grid.
  | Initial density: Formal number of electrons (from input files) :     162.0000000000
  | Integrated number of electrons on 3D grid     :     162.0000356131
  | Charge integration error                      :       0.0000356131
  | Normalization factor for density and gradient :       0.9999997802
  Obtaining max. number of non-zero basis functions in each batch (get_n_compute_maxes).
  | Maximal number of non-zero basis functions:      805
  Selecting the method for density update.
  Loop over occupied states selected for charge density update.
  Hamiltonian matrix size:
  | Size of matrix non-packed:                727821
  | Size of matrix packed:          645313
  Allocating        1.737 MB for KS_eigenvector
  use_local_index: Max. local matrix size =       522100
  Task:     0 matrix size:     302611
  Task:     1 matrix size:     209489
  Task:     2 matrix size:     374765
  Task:     3 matrix size:     199645
  Task:     4 matrix size:     463614
  Task:     5 matrix size:     371412
  Task:     6 matrix size:     487376
  Task:     7 matrix size:     115921
  Task:     8 matrix size:      88831
  Task:     9 matrix size:     108811
  Task:    10 matrix size:     362521
  Task:    11 matrix size:     398212
  Task:    12 matrix size:     490005
  Task:    13 matrix size:     411464
  Task:    14 matrix size:      98790
  Task:    15 matrix size:      55611
  Task:    16 matrix size:      86320
  Task:    17 matrix size:     339424
  Task:    18 matrix size:     367002
  Task:    19 matrix size:     306997
  Task:    20 matrix size:     221127
  Task:    21 matrix size:     180094
  Task:    22 matrix size:      90100
  Task:    23 matrix size:     120295
  Task:    24 matrix size:     426603
  Task:    25 matrix size:     430372
  Task:    26 matrix size:     310270
  Task:    27 matrix size:     324743
  Task:    28 matrix size:     209233
  Task:    29 matrix size:     213876
  Task:    30 matrix size:     205804
  Task:    31 matrix size:     520987
  Task:    32 matrix size:     522100
  Task:    33 matrix size:     339130
  Task:    34 matrix size:     225458
  Task:    35 matrix size:     177464
  Task:    36 matrix size:      68265
  Task:    37 matrix size:     155113
  Task:    38 matrix size:     515002
  Task:    39 matrix size:     472800
  Task:    40 matrix size:     418630
  Task:    41 matrix size:     349880
  Task:    42 matrix size:     399595
  Task:    43 matrix size:     343374
  Task:    44 matrix size:     346861
  Task:    45 matrix size:     156485
  Task:    46 matrix size:      90525
  Task:    47 matrix size:     119805
  Task:    48 matrix size:      66795
  Task:    49 matrix size:     402738
  Task:    50 matrix size:     326121
  Task:    51 matrix size:     260339
  Task:    52 matrix size:     187421
  Task:    53 matrix size:     106953
  Task:    54 matrix size:     101025
  Task:    55 matrix size:      74305
  Integrating Hamiltonian matrix: batch-based integration.
  Time summed over all CPUs for integration: real work       93.419 s, elapsed      171.247 s
  Time get_set_sparse_local_matrix_scalapack:     0.010797 s
  Start compute_balanced_batch_distribution
  Done load balancing, time needed:      0.006 s
  Integrating overlap matrix with loadbalancing
  Time summed over all CPUs for integration: real work       25.631 s, elapsed       29.899 s
  Time get_set_full_local_matrix_scalapack:     0.011656 s

  Updating Kohn-Sham eigenvalues and eigenvectors using ELSI and the ELPA eigensolver.
  Overlap matrix is not singular
  | Lowest and highest eigenvalues :  0.11E+02,  0.94E-04
  Finished singularity check of overlap matrix
  | Time :     0.063 s
  Finished Cholesky decomposition
  | Time :     0.015 s
  Finished transformation to standard eigenproblem
  | Time :     0.010 s
  Starting ELPA eigensolver
  Finished solving standard eigenproblem
  | Time :     0.065 s
  Finished back-transformation of eigenvectors
  | Time :     0.003 s

  Obtaining occupation numbers and chemical potential using ELSI.
  | Chemical potential (Fermi level):    -8.60154128 eV
  Writing Kohn-Sham eigenvalues.

  State    Occupation    Eigenvalue [Ha]    Eigenvalue [eV]
      1       2.00000         -10.176348         -276.91252
      2       2.00000         -10.175675         -276.89420
      3       2.00000         -10.175470         -276.88862
      4       2.00000         -10.175092         -276.87835
      5       2.00000         -10.174157         -276.85289
      6       2.00000         -10.173694         -276.84031
      7       2.00000         -10.173603         -276.83783
      8       2.00000         -10.173431         -276.83313
      9       2.00000         -10.173236         -276.82784
     10       2.00000         -10.173121         -276.82469
     11       2.00000         -10.172351         -276.80376
     12       2.00000         -10.172242         -276.80078
     13       2.00000         -10.171523         -276.78123
     14       2.00000         -10.171205         -276.77257
     15       2.00000         -10.170336         -276.74892
     16       2.00000         -10.170257         -276.74679
     17       2.00000         -10.170246         -276.74647
     18       2.00000         -10.169503         -276.72625
     19       2.00000         -10.166247         -276.63766
     20       2.00000         -10.166179         -276.63581
     21       2.00000         -10.165153         -276.60788
     22       2.00000         -10.165000         -276.60373
     23       2.00000         -10.164568         -276.59197
     24       2.00000         -10.164336         -276.58566
     25       2.00000          -1.012145          -27.54186
     26       2.00000          -1.003125          -27.29642
     27       2.00000          -1.001063          -27.24030
     28       2.00000          -0.986819          -26.85272
     29       2.00000          -0.922884          -25.11295
     30       2.00000          -0.921726          -25.08144
     31       2.00000          -0.890544          -24.23294
     32       2.00000          -0.888559          -24.17891
     33       2.00000          -0.887550          -24.15146
     34       2.00000          -0.886812          -24.13137
     35       2.00000          -0.863064          -23.48517
     36       2.00000          -0.861969          -23.45536
     37       2.00000          -0.777839          -21.16607
     38       2.00000          -0.776435          -21.12788
     39       2.00000          -0.758312          -20.63473
     40       2.00000          -0.753133          -20.49378
     41       2.00000          -0.747175          -20.33166
     42       2.00000          -0.746871          -20.32338
     43       2.00000          -0.718772          -19.55878
     44       2.00000          -0.717796          -19.53222
     45       2.00000          -0.680028          -18.50450
     46       2.00000          -0.653471          -17.78185
     47       2.00000          -0.652692          -17.76065
     48       2.00000          -0.650373          -17.69755
     49       2.00000          -0.630506          -17.15694
     50       2.00000          -0.628177          -17.09357
     51       2.00000          -0.626380          -17.04467
     52       2.00000          -0.607622          -16.53424
     53       2.00000          -0.601990          -16.38097
     54       2.00000          -0.583224          -15.87034
     55       2.00000          -0.582465          -15.84968
     56       2.00000          -0.574644          -15.63685
     57       2.00000          -0.573912          -15.61694
     58       2.00000          -0.570787          -15.53190
     59       2.00000          -0.566498          -15.41519
     60       2.00000          -0.565502          -15.38809
     61       2.00000          -0.564653          -15.36500
     62       2.00000          -0.522823          -14.22674
     63       2.00000          -0.521677          -14.19556
     64       2.00000          -0.519961          -14.14886
     65       2.00000          -0.512313          -13.94073
     66       2.00000          -0.509245          -13.85726
     67       2.00000          -0.508637          -13.84071
     68       2.00000          -0.503039          -13.68838
     69       2.00000          -0.500587          -13.62166
     70       2.00000          -0.495855          -13.49290
     71       2.00000          -0.493262          -13.42235
     72       2.00000          -0.491334          -13.36988
     73       2.00000          -0.489732          -13.32630
     74       2.00000          -0.431021          -11.72868
     75       2.00000          -0.430384          -11.71135
     76       2.00000          -0.405396          -11.03137
     77       2.00000          -0.404681          -11.01192
     78       2.00000          -0.404044          -10.99460
     79       2.00000          -0.401220          -10.91775
     80       2.00000          -0.380078          -10.34246
     81       2.00000          -0.378737          -10.30596
     82       0.00000          -0.236866           -6.44546
     83       0.00000          -0.235334           -6.40375
     84       0.00000          -0.213867           -5.81962
     85       0.00000          -0.210582           -5.73022
     86       0.00000          -0.210057           -5.71595
     87       0.00000          -0.209772           -5.70819
     88       0.00000          -0.176051           -4.79059
     89       0.00000          -0.173278           -4.71513
     90       0.00000          -0.086659           -2.35811
     91       0.00000          -0.075796           -2.06252
     92       0.00000          -0.067768           -1.84407
     93       0.00000          -0.066618           -1.81276
     94       0.00000          -0.065715           -1.78818
     95       0.00000          -0.060699           -1.65171
     96       0.00000          -0.057207           -1.55668
     97       0.00000          -0.056364           -1.53374
     98       0.00000          -0.045398           -1.23535
     99       0.00000          -0.038255           -1.04096
    100       0.00000          -0.032860           -0.89415
    101       0.00000          -0.028069           -0.76378
    102       0.00000          -0.019992           -0.54400
    103       0.00000          -0.018763           -0.51057
    104       0.00000          -0.013791           -0.37526
    105       0.00000          -0.011249           -0.30610
    106       0.00000          -0.007677           -0.20889
    107       0.00000          -0.000405           -0.01101
    108       0.00000           0.004009            0.10909
    109       0.00000           0.007176            0.19526
    110       0.00000           0.013147            0.35774
    111       0.00000           0.018533            0.50431
    112       0.00000           0.020359            0.55400
    113       0.00000           0.020799            0.56596
    114       0.00000           0.025646            0.69787
    115       0.00000           0.035915            0.97729
    116       0.00000           0.037424            1.01836
    117       0.00000           0.037825            1.02927
    118       0.00000           0.048474            1.31906
    119       0.00000           0.049584            1.34924
    120       0.00000           0.054325            1.47826
    121       0.00000           0.058539            1.59293
    122       0.00000           0.062599            1.70340
    123       0.00000           0.064589            1.75755
    124       0.00000           0.068793            1.87196
    125       0.00000           0.071378            1.94230
    126       0.00000           0.072408            1.97031
    127       0.00000           0.072605            1.97569
    128       0.00000           0.073147            1.99042
    129       0.00000           0.078805            2.14439
    130       0.00000           0.082275            2.23882
    131       0.00000           0.084989            2.31267
    132       0.00000           0.088899            2.41906
    133       0.00000           0.092130            2.50699
    134       0.00000           0.096229            2.61853
    135       0.00000           0.100167            2.72569
    136       0.00000           0.104725            2.84972
    137       0.00000           0.105368            2.86720
    138       0.00000           0.109912            2.99086
    139       0.00000           0.113810            3.09693
    140       0.00000           0.119547            3.25305
    141       0.00000           0.121164            3.29705
    142       0.00000           0.121784            3.31392
    143       0.00000           0.122848            3.34286
    144       0.00000           0.123672            3.36528
    145       0.00000           0.128320            3.49177
    146       0.00000           0.129002            3.51032
    147       0.00000           0.133141            3.62296
    148       0.00000           0.134271            3.65369
    149       0.00000           0.138617            3.77196
    150       0.00000           0.140727            3.82938
    151       0.00000           0.141119            3.84006
    152       0.00000           0.143790            3.91271
    153       0.00000           0.143956            3.91725
    154       0.00000           0.146392            3.98353
    155       0.00000           0.154462            4.20313
    156       0.00000           0.162585            4.42416
    157       0.00000           0.165017            4.49034
    158       0.00000           0.170112            4.62899
    159       0.00000           0.176997            4.81632
    160       0.00000           0.178555            4.85872
    161       0.00000           0.184822            5.02927
    162       0.00000           0.190319            5.17886
    163       0.00000           0.194040            5.28010
    164       0.00000           0.200474            5.45517
    165       0.00000           0.201292            5.47744
    166       0.00000           0.203273            5.53133
    167       0.00000           0.205243            5.58494
    168       0.00000           0.208779            5.68118
    169       0.00000           0.210325            5.72323
    170       0.00000           0.213630            5.81317
    171       0.00000           0.213953            5.82195
    172       0.00000           0.216082            5.87989
    173       0.00000           0.219177            5.96411
    174       0.00000           0.221805            6.03563
    175       0.00000           0.225311            6.13102
    176       0.00000           0.227379            6.18729
    177       0.00000           0.233838            6.36305
    178       0.00000           0.240077            6.53282
    179       0.00000           0.241161            6.56234
    180       0.00000           0.254327            6.92058

  Highest occupied state (VBM) at    -10.30596163 eV
  | Occupation number:      2.00000000

  Lowest unoccupied state (CBM) at    -6.44546375 eV
  | Occupation number:      0.00000000

  Overall HOMO-LUMO gap:      3.86049788 eV.
  Calculating total energy contributions from superposition of free atom densities.

  Total energy components:
  | Sum of eigenvalues            :        -561.68502677 Ha      -15284.22723127 eV
  | XC energy correction          :        -133.34287396 Ha       -3628.44421369 eV
  | XC potential correction       :         171.27536342 Ha        4660.63976936 eV
  | Free-atom electrostatic energy:        -402.47956280 Ha      -10952.02613665 eV
  | Hartree energy correction     :           0.00000000 Ha           0.00000000 eV
  | Entropy correction            :           0.00000000 Ha           0.00000000 eV
  | ---------------------------
  | Total energy                  :        -926.23210011 Ha      -25204.05781224 eV
  | Total energy, T -> 0          :        -926.23210011 Ha      -25204.05781224 eV  <-- do not rely on this value for anything but (periodic) metals
  | Electronic free energy        :        -926.23210011 Ha      -25204.05781224 eV

  Derived energy quantities:
  | Kinetic energy                :         916.58007371 Ha       24941.41281076 eV
  | Electrostatic energy          :       -1709.46929986 Ha      -46517.02640931 eV
  | Energy correction for multipole
  | error in Hartree potential    :           0.00000000 Ha           0.00000000 eV
  | Sum of eigenvalues per atom                           :        -363.91017217 eV
  | Total energy (T->0) per atom                          :        -600.09661458 eV  <-- do not rely on this value for anything but (periodic) metals
  | Electronic free energy per atom                       :        -600.09661458 eV
  Initialize hartree_potential_storage
  Max. number of atoms included in rho_multipole:           42

  End scf initialization - timings             :  max(cpu_time)    wall_clock(cpu1)
  | Time for scf. initialization               :        4.990 s           5.055 s
  | Boundary condition initialization          :        0.001 s           0.005 s
  | Integration                                :        3.633 s           3.639 s
  | Solution of K.-S. eqns.                    :        0.165 s           0.182 s
  | Grid partitioning                          :        0.576 s           0.580 s
  | Preloading free-atom quantities on grid    :        0.014 s           0.017 s
  | Free-atom superposition energy             :        0.050 s           0.050 s
  | Total energy evaluation                    :        0.001 s           0.005 s

  Partial memory accounting:
  | Current value for overall tracked memory usage on task 0  :           3.624 MB
  | Peak value for overall tracked memory usage on task 0     :          22.840 MB after allocating zora_vector2
  | Largest tracked array allocation on task 0 so far         :           5.184 MB  when allocating hamiltonian_shell
  Note:  These values currently only include a subset of arrays which are explicitly tracked.
  The "true" memory usage will be greater.
------------------------------------------------------------

------------------------------------------------------------
          Begin self-consistency iteration #    1

  Date     :  20210620, Time     :  175004.846
------------------------------------------------------------
  Evaluating new KS density.
  Integration grid: deviation in total charge (<rho> - N_e) =   2.842171E-14
  Pulay mixing of updated and previous charge densities.

  Evaluating partitioned Hartree potential by multipole expansion.
  | Analytical far-field extrapolation by fixed multipoles:
  | Hartree multipole sum: apparent total charge =   0.275668E-04
  Summing up the Hartree potential with load balancing.
  Time summed over all CPUs for potential: real work       19.401 s, elapsed       30.937 s
  | RMS charge density error from multipole expansion :   0.114768E-01

  Start compute_balanced_batch_distribution
  Done load balancing, time needed:      0.006 s
  Integrating Hamiltonian matrix: batch-based integration with load balancing
  Time summed over all CPUs for integration: real work      101.729 s, elapsed      115.969 s
  Time get_set_full_local_matrix_scalapack:     0.011675 s
  Start compute_balanced_batch_distribution
  Done load balancing, time needed:      0.006 s

  Updating Kohn-Sham eigenvalues and eigenvectors using ELSI and the ELPA eigensolver.
  Finished transformation to standard eigenproblem
  | Time :     0.011 s
  Starting ELPA eigensolver
  Finished solving standard eigenproblem
  | Time :     0.063 s
  Finished back-transformation of eigenvectors
  | Time :     0.003 s

  Obtaining occupation numbers and chemical potential using ELSI.
  | Chemical potential (Fermi level):    -4.22886405 eV
  Writing Kohn-Sham eigenvalues.

  State    Occupation    Eigenvalue [Ha]    Eigenvalue [eV]
      1       2.00000          -9.978435         -271.52703
      2       2.00000          -9.978300         -271.52335
      3       2.00000          -9.977607         -271.50450
      4       2.00000          -9.974004         -271.40646
      5       2.00000          -9.971932         -271.35008
      6       2.00000          -9.971485         -271.33790
      7       2.00000          -9.954096         -270.86474
      8       2.00000          -9.952664         -270.82578
      9       2.00000          -9.951713         -270.79990
     10       2.00000          -9.947325         -270.68048
     11       2.00000          -9.946770         -270.66539
     12       2.00000          -9.944973         -270.61649
     13       2.00000          -9.944924         -270.61515
     14       2.00000          -9.944758         -270.61064
     15       2.00000          -9.942512         -270.54951
     16       2.00000          -9.941899         -270.53284
     17       2.00000          -9.940356         -270.49086
     18       2.00000          -9.940268         -270.48845
     19       2.00000          -9.940133         -270.48479
     20       2.00000          -9.939880         -270.47789
     21       2.00000          -9.938380         -270.43708
     22       2.00000          -9.937215         -270.40538
     23       2.00000          -9.936866         -270.39589
     24       2.00000          -9.935919         -270.37012
     25       2.00000          -0.861534          -23.44354
     26       2.00000          -0.841335          -22.89390
     27       2.00000          -0.840350          -22.86710
     28       2.00000          -0.825235          -22.45580
     29       2.00000          -0.774466          -21.07428
     30       2.00000          -0.774072          -21.06357
     31       2.00000          -0.735183          -20.00535
     32       2.00000          -0.734307          -19.98150
     33       2.00000          -0.733592          -19.96206
     34       2.00000          -0.733235          -19.95234
     35       2.00000          -0.709926          -19.31807
     36       2.00000          -0.709762          -19.31360
     37       2.00000          -0.636087          -17.30880
     38       2.00000          -0.634954          -17.27798
     39       2.00000          -0.611291          -16.63409
     40       2.00000          -0.609752          -16.59221
     41       2.00000          -0.602623          -16.39822
     42       2.00000          -0.602196          -16.38659
     43       2.00000          -0.573720          -15.61171
     44       2.00000          -0.572846          -15.58793
     45       2.00000          -0.547564          -14.89997
     46       2.00000          -0.520771          -14.17091
     47       2.00000          -0.520283          -14.15763
     48       2.00000          -0.504413          -13.72577
     49       2.00000          -0.493717          -13.43473
     50       2.00000          -0.484000          -13.17031
     51       2.00000          -0.468294          -12.74293
     52       2.00000          -0.467479          -12.72075
     53       2.00000          -0.462911          -12.59645
     54       2.00000          -0.461029          -12.54524
     55       2.00000          -0.447218          -12.16943
     56       2.00000          -0.440394          -11.98374
     57       2.00000          -0.437975          -11.91791
     58       2.00000          -0.437570          -11.90689
     59       2.00000          -0.431742          -11.74830
     60       2.00000          -0.431083          -11.73037
     61       2.00000          -0.429086          -11.67603
     62       2.00000          -0.395683          -10.76708
     63       2.00000          -0.389805          -10.60712
     64       2.00000          -0.389291          -10.59315
     65       2.00000          -0.379124          -10.31648
     66       2.00000          -0.377281          -10.26633
     67       2.00000          -0.373195          -10.15516
     68       2.00000          -0.367142           -9.99045
     69       2.00000          -0.363705           -9.89692
     70       2.00000          -0.362103           -9.85333
     71       2.00000          -0.361413           -9.83456
     72       2.00000          -0.352258           -9.58544
     73       2.00000          -0.351291           -9.55910
     74       2.00000          -0.305154           -8.30367
     75       2.00000          -0.303587           -8.26103
     76       2.00000          -0.273247           -7.43542
     77       2.00000          -0.272831           -7.42412
     78       2.00000          -0.272751           -7.42193
     79       2.00000          -0.270106           -7.34996
     80       2.00000          -0.251102           -6.83284
     81       2.00000          -0.250111           -6.80587
     82       0.00000          -0.113888           -3.09905
     83       0.00000          -0.111708           -3.03973
     84       0.00000          -0.087040           -2.36847
     85       0.00000          -0.083917           -2.28349
     86       0.00000          -0.083503           -2.27224
     87       0.00000          -0.083084           -2.26084
     88       0.00000          -0.051048           -1.38908
     89       0.00000          -0.047737           -1.29900
     90       0.00000          -0.032115           -0.87389
     91       0.00000          -0.024016           -0.65351
     92       0.00000          -0.021718           -0.59097
     93       0.00000          -0.011955           -0.32531
     94       0.00000          -0.007444           -0.20255
     95       0.00000          -0.003071           -0.08356
     96       0.00000           0.005539            0.15072
     97       0.00000           0.014603            0.39737
     98       0.00000           0.016822            0.45775
     99       0.00000           0.021776            0.59256
    100       0.00000           0.027277            0.74223
    101       0.00000           0.029386            0.79962
    102       0.00000           0.032583            0.88662
    103       0.00000           0.043497            1.18360
    104       0.00000           0.047058            1.28051
    105       0.00000           0.050891            1.38480
    106       0.00000           0.054248            1.47617
    107       0.00000           0.062766            1.70794
    108       0.00000           0.065766            1.78957
    109       0.00000           0.067367            1.83315
    110       0.00000           0.070131            1.90835
    111       0.00000           0.075331            2.04987
    112       0.00000           0.076192            2.07329
    113       0.00000           0.078523            2.13671
    114       0.00000           0.080360            2.18670
    115       0.00000           0.095399            2.59594
    116       0.00000           0.109501            2.97968
    117       0.00000           0.117840            3.20659
    118       0.00000           0.119165            3.24264
    119       0.00000           0.120909            3.29009
    120       0.00000           0.121760            3.31327
    121       0.00000           0.125696            3.42036
    122       0.00000           0.127550            3.47081
    123       0.00000           0.129646            3.52786
    124       0.00000           0.131018            3.56517
    125       0.00000           0.136568            3.71621
    126       0.00000           0.140676            3.82798
    127       0.00000           0.141402            3.84776
    128       0.00000           0.144183            3.92342
    129       0.00000           0.146499            3.98644
    130       0.00000           0.147003            4.00017
    131       0.00000           0.151095            4.11149
    132       0.00000           0.155728            4.23758
    133       0.00000           0.162842            4.43116
    134       0.00000           0.165231            4.49617
    135       0.00000           0.168038            4.57254
    136       0.00000           0.168460            4.58403
    137       0.00000           0.172468            4.69310
    138       0.00000           0.176239            4.79572
    139       0.00000           0.179052            4.87225
    140       0.00000           0.183016            4.98012
    141       0.00000           0.189148            5.14698
    142       0.00000           0.189888            5.16712
    143       0.00000           0.193629            5.26890
    144       0.00000           0.198677            5.40628
    145       0.00000           0.200011            5.44257
    146       0.00000           0.203650            5.54159
    147       0.00000           0.207831            5.65537
    148       0.00000           0.208200            5.66541
    149       0.00000           0.209836            5.70994
    150       0.00000           0.212144            5.77272
    151       0.00000           0.216318            5.88632
    152       0.00000           0.217834            5.92757
    153       0.00000           0.219059            5.96090
    154       0.00000           0.225327            6.13145
    155       0.00000           0.230933            6.28400
    156       0.00000           0.233651            6.35796
    157       0.00000           0.239378            6.51381
    158       0.00000           0.240556            6.54586
    159       0.00000           0.242051            6.58653
    160       0.00000           0.248714            6.76785
    161       0.00000           0.252222            6.86330
    162       0.00000           0.255464            6.95154
    163       0.00000           0.261549            7.11711
    164       0.00000           0.264174            7.18853
    165       0.00000           0.264480            7.19686
    166       0.00000           0.270186            7.35214
    167       0.00000           0.270852            7.37025
    168       0.00000           0.278259            7.57182
    169       0.00000           0.280793            7.64076
    170       0.00000           0.281480            7.65946
    171       0.00000           0.283058            7.70239
    172       0.00000           0.285537            7.76985
    173       0.00000           0.293767            7.99382
    174       0.00000           0.296970            8.08098
    175       0.00000           0.300859            8.18679
    176       0.00000           0.315208            8.57725
    177       0.00000           0.318035            8.65418
    178       0.00000           0.321286            8.74263
    179       0.00000           0.326744            8.89115
    180       0.00000           0.327692            8.91695

  Highest occupied state (VBM) at     -6.80587216 eV
  | Occupation number:      2.00000000

  Lowest unoccupied state (CBM) at    -3.09904974 eV
  | Occupation number:      0.00000000

  Overall HOMO-LUMO gap:      3.70682242 eV.

  Total energy components:
  | Sum of eigenvalues            :        -535.19119293 Ha      -14563.29333172 eV
  | XC energy correction          :        -135.22126236 Ha       -3679.55776253 eV
  | XC potential correction       :         173.71372323 Ha        4726.99091587 eV
  | Free-atom electrostatic energy:        -402.47956280 Ha      -10952.02613665 eV
  | Hartree energy correction     :         -26.13736202 Ha        -711.23380770 eV
  | Entropy correction            :           0.00000000 Ha           0.00000000 eV
  | ---------------------------
  | Total energy                  :        -925.31565686 Ha      -25179.12012272 eV
  | Total energy, T -> 0          :        -925.31565686 Ha      -25179.12012272 eV  <-- do not rely on this value for anything but (periodic) metals
  | Electronic free energy        :        -925.31565686 Ha      -25179.12012272 eV

  Derived energy quantities:
  | Kinetic energy                :         925.17390405 Ha       25175.26283240 eV
  | Electrostatic energy          :       -1715.26829855 Ha      -46674.82519259 eV
  | Energy correction for multipole
  | error in Hartree potential    :          -0.05777272 Ha          -1.57207579 eV
  | Sum of eigenvalues per atom                           :        -346.74507933 eV
  | Total energy (T->0) per atom                          :        -599.50286006 eV  <-- do not rely on this value for anything but (periodic) metals
  | Electronic free energy per atom                       :        -599.50286006 eV

  Self-consistency convergence accuracy:
  | Change of charge density      :  0.1012E+01
  | Change of sum of eigenvalues  :  0.7209E+03 eV
  | Change of total energy        :  0.2494E+02 eV

  End self-consistency iteration #     1       :  max(cpu_time)    wall_clock(cpu1)
  | Time for this iteration                    :        3.598 s           3.604 s
  | Charge density update                      :        0.824 s           0.825 s
  | Density mixing                             :        0.003 s           0.004 s
  | Hartree multipole update                   :        0.010 s           0.011 s
  | Hartree multipole summation                :        0.562 s           0.564 s
  | Integration                                :        2.075 s           2.076 s
  | Solution of K.-S. eqns.                    :        0.110 s           0.110 s
  | Total energy evaluation                    :        0.000 s           0.001 s

  Partial memory accounting:
  | Current value for overall tracked memory usage on task 0  :           3.624 MB
  | Peak value for overall tracked memory usage on task 0     :          23.285 MB after allocating zora_vector2
  | Largest tracked array allocation on task 0 so far         :           5.184 MB  when allocating hamiltonian_shell
  Note:  These values currently only include a subset of arrays which are explicitly tracked.
  The "true" memory usage will be greater.
------------------------------------------------------------

------------------------------------------------------------
          Begin self-consistency iteration #    2

  Date     :  20210620, Time     :  175008.452
------------------------------------------------------------
  Evaluating new KS density.
  Integration grid: deviation in total charge (<rho> - N_e) =   1.421085E-13
  Pulay mixing of updated and previous charge densities.

  Evaluating partitioned Hartree potential by multipole expansion.
  | Analytical far-field extrapolation by fixed multipoles:
  | Hartree multipole sum: apparent total charge =   0.284168E-04
  Summing up the Hartree potential with load balancing.
  Time summed over all CPUs for potential: real work       19.542 s, elapsed       22.447 s
  | RMS charge density error from multipole expansion :   0.199496E-01

  Integrating Hamiltonian matrix: batch-based integration with load balancing
  Time summed over all CPUs for integration: real work      103.322 s, elapsed      107.342 s
  Time get_set_full_local_matrix_scalapack:     0.013689 s

  Updating Kohn-Sham eigenvalues and eigenvectors using ELSI and the ELPA eigensolver.
  Finished transformation to standard eigenproblem
  | Time :     0.011 s
  Starting ELPA eigensolver
  Finished solving standard eigenproblem
  | Time :     0.064 s
  Finished back-transformation of eigenvectors
  | Time :     0.003 s

  Obtaining occupation numbers and chemical potential using ELSI.
  | Chemical potential (Fermi level):    -3.42750651 eV
  Highest occupied state (VBM) at     -5.67760527 eV
  | Occupation number:      2.00000000

  Lowest unoccupied state (CBM) at    -1.96829287 eV
  | Occupation number:      0.00000000

  Overall HOMO-LUMO gap:      3.70931240 eV.

  Checking to see if s.c.f. parameters should be adjusted.

  Total energy components:
  | Sum of eigenvalues            :        -527.05112058 Ha      -14341.79069333 eV
  | XC energy correction          :        -135.98643180 Ha       -3700.37908250 eV
  | XC potential correction       :         174.69655116 Ha        4753.73502438 eV
  | Free-atom electrostatic energy:        -402.47956280 Ha      -10952.02613665 eV
  | Hartree energy correction     :         -34.38424082 Ha        -935.64279777 eV
  | Entropy correction            :           0.00000000 Ha           0.00000000 eV
  | ---------------------------
  | Total energy                  :        -925.20480484 Ha      -25176.10368588 eV
  | Total energy, T -> 0          :        -925.20480484 Ha      -25176.10368588 eV  <-- do not rely on this value for anything but (periodic) metals
  | Electronic free energy        :        -925.20480484 Ha      -25176.10368588 eV

  Derived energy quantities:
  | Kinetic energy                :         925.20799977 Ha       25176.19062432 eV
  | Electrostatic energy          :       -1714.42637282 Ha      -46651.91522769 eV
  | Energy correction for multipole
  | error in Hartree potential    :          -0.09123059 Ha          -2.48251056 eV
[...]
     10       2.00000          -9.894841         -269.25231
     11       2.00000          -9.894597         -269.24568
     12       2.00000          -9.894459         -269.24193
     13       2.00000          -9.894267         -269.23670
     14       2.00000          -9.894061         -269.23111
     15       2.00000          -9.893996         -269.22934
     16       2.00000          -9.893958         -269.22830
     17       2.00000          -9.893865         -269.22576
     18       2.00000          -9.893725         -269.22196
     19       2.00000          -9.893490         -269.21555
     20       2.00000          -9.892917         -269.19996
     21       2.00000          -9.892494         -269.18847
     22       2.00000          -9.892046         -269.17626
     23       2.00000          -9.891866         -269.17136
     24       2.00000          -9.891045         -269.14903
     25       2.00000          -0.808042          -21.98794
     26       2.00000          -0.793056          -21.58016
     27       2.00000          -0.791965          -21.55046
     28       2.00000          -0.775829          -21.11137
     29       2.00000          -0.720507          -19.60601
     30       2.00000          -0.720054          -19.59368
     31       2.00000          -0.682535          -18.57271
     32       2.00000          -0.681667          -18.54909
     33       2.00000          -0.680966          -18.53004
     34       2.00000          -0.680588          -18.51974
     35       2.00000          -0.654239          -17.80276
     36       2.00000          -0.653988          -17.79593
     37       2.00000          -0.578029          -15.72898
     38       2.00000          -0.576902          -15.69830
     39       2.00000          -0.555119          -15.10556
     40       2.00000          -0.552428          -15.03232
     41       2.00000          -0.545214          -14.83603
     42       2.00000          -0.544785          -14.82435
     43       2.00000          -0.515127          -14.01731
     44       2.00000          -0.514312          -13.99515
     45       2.00000          -0.491059          -13.36239
     46       2.00000          -0.464071          -12.62802
     47       2.00000          -0.463542          -12.61363
     48       2.00000          -0.442678          -12.04589
     49       2.00000          -0.433978          -11.80914
     50       2.00000          -0.422820          -11.50550
     51       2.00000          -0.410418          -11.16805
     52       2.00000          -0.408486          -11.11548
     53       2.00000          -0.402512          -10.95292
     54       2.00000          -0.401056          -10.91329
     55       2.00000          -0.389119          -10.58847
     56       2.00000          -0.381896          -10.39192
     57       2.00000          -0.380481          -10.35342
     58       2.00000          -0.380018          -10.34082
     59       2.00000          -0.375728          -10.22407
     60       2.00000          -0.374604          -10.19350
     61       2.00000          -0.372034          -10.12355
     62       2.00000          -0.352521           -9.59258
     63       2.00000          -0.341754           -9.29959
     64       2.00000          -0.338441           -9.20945
     65       2.00000          -0.328323           -8.93412
     66       2.00000          -0.327253           -8.90501
     67       2.00000          -0.324647           -8.83409
     68       2.00000          -0.314253           -8.55127
     69       2.00000          -0.305449           -8.31168
     70       2.00000          -0.303362           -8.25490
     71       2.00000          -0.302201           -8.22332
     72       2.00000          -0.291525           -7.93280
     73       2.00000          -0.290030           -7.89212
     74       2.00000          -0.263598           -7.17286
     75       2.00000          -0.261801           -7.12396
     76       2.00000          -0.235409           -6.40581
     77       2.00000          -0.234962           -6.39363
     78       2.00000          -0.234861           -6.39089
     79       2.00000          -0.230938           -6.28413
     80       2.00000          -0.208992           -5.68695
     81       2.00000          -0.208052           -5.66138
     82       0.00000          -0.071248           -1.93875
     83       0.00000          -0.069077           -1.87969
     84       0.00000          -0.046925           -1.27689
     85       0.00000          -0.044959           -1.22340
     86       0.00000          -0.044291           -1.20523
     87       0.00000          -0.043828           -1.19263
     88       0.00000          -0.011092           -0.30184
     89       0.00000          -0.008725           -0.23742
     90       0.00000          -0.005986           -0.16288
     91       0.00000          -0.002145           -0.05836
     92       0.00000          -0.000777           -0.02114
     93       0.00000           0.009276            0.25242
     94       0.00000           0.013589            0.36979
     95       0.00000           0.017526            0.47692
     96       0.00000           0.025325            0.68913
     97       0.00000           0.035228            0.95859
     98       0.00000           0.036866            1.00318
     99       0.00000           0.042250            1.14968
    100       0.00000           0.050430            1.37228
    101       0.00000           0.052595            1.43118
    102       0.00000           0.054540            1.48411
    103       0.00000           0.063431            1.72604
    104       0.00000           0.067464            1.83579
    105       0.00000           0.083014            2.25892
    106       0.00000           0.086400            2.35105
    107       0.00000           0.087051            2.36877
    108       0.00000           0.092526            2.51776
    109       0.00000           0.095182            2.59003
    110       0.00000           0.099115            2.69706
    111       0.00000           0.104464            2.84262
    112       0.00000           0.110435            3.00510
    113       0.00000           0.112233            3.05400
    114       0.00000           0.115158            3.13361
    115       0.00000           0.117623            3.20069
    116       0.00000           0.126628            3.44572
    117       0.00000           0.141674            3.85514
    118       0.00000           0.143491            3.90458
    119       0.00000           0.146093            3.97538
    120       0.00000           0.151345            4.11831
    121       0.00000           0.153454            4.17568
    122       0.00000           0.156179            4.24986
    123       0.00000           0.159193            4.33186
    124       0.00000           0.160481            4.36690
    125       0.00000           0.168701            4.59060
    126       0.00000           0.169382            4.60913
    127       0.00000           0.170041            4.62706
    128       0.00000           0.173062            4.70926
    129       0.00000           0.173487            4.72082
    130       0.00000           0.177305            4.82472
    131       0.00000           0.180615            4.91480
    132       0.00000           0.182289            4.96035
    133       0.00000           0.192036            5.22556
    134       0.00000           0.194035            5.27997
    135       0.00000           0.195730            5.32607
    136       0.00000           0.198928            5.41312
    137       0.00000           0.203806            5.54584
    138       0.00000           0.209574            5.70280
    139       0.00000           0.211473            5.75446
    140       0.00000           0.213852            5.81920
    141       0.00000           0.218084            5.93436
    142       0.00000           0.220457            5.99894
    143       0.00000           0.223048            6.06945
    144       0.00000           0.227910            6.20175
    145       0.00000           0.230868            6.28223
    146       0.00000           0.235664            6.41273
    147       0.00000           0.237193            6.45435
    148       0.00000           0.241106            6.56082
    149       0.00000           0.242868            6.60878
    150       0.00000           0.244224            6.64569
    151       0.00000           0.246270            6.70134
    152       0.00000           0.248795            6.77004
    153       0.00000           0.249785            6.79700
    154       0.00000           0.258187            7.02563
    155       0.00000           0.266596            7.25446
    156       0.00000           0.268099            7.29534
    157       0.00000           0.269201            7.32534
    158       0.00000           0.271982            7.40101
    159       0.00000           0.277143            7.54144
    160       0.00000           0.279270            7.59933
    161       0.00000           0.279659            7.60990
    162       0.00000           0.283849            7.72392
    163       0.00000           0.289411            7.87526
    164       0.00000           0.294814            8.02231
    165       0.00000           0.296516            8.06862
    166       0.00000           0.298784            8.13034
    167       0.00000           0.300388            8.17398
    168       0.00000           0.307426            8.36547
    169       0.00000           0.307753            8.37438
    170       0.00000           0.314561            8.55965
    171       0.00000           0.318731            8.67312
    172       0.00000           0.320801            8.72944
    173       0.00000           0.325508            8.85752
    174       0.00000           0.328079            8.92749
    175       0.00000           0.335116            9.11896
    176       0.00000           0.350716            9.54347
    177       0.00000           0.351778            9.57237
    178       0.00000           0.354511            9.64674
    179       0.00000           0.356455            9.69963
    180       0.00000           0.358380            9.75202

  Highest occupied state (VBM) at     -5.66137837 eV
  | Occupation number:      2.00000000

  Lowest unoccupied state (CBM) at    -1.93875415 eV
  | Occupation number:      0.00000000

  Overall HOMO-LUMO gap:      3.72262422 eV.

  Total energy components:
  | Sum of eigenvalues            :        -526.49497673 Ha      -14326.65724902 eV
  | XC energy correction          :        -136.06823865 Ha       -3702.60516013 eV
  | XC potential correction       :         174.79571414 Ha        4756.43338648 eV
  | Free-atom electrostatic energy:        -402.47956280 Ha      -10952.02613665 eV
  | Hartree energy correction     :         -34.74606263 Ha        -945.48846996 eV
  | Entropy correction            :           0.00000000 Ha           0.00000000 eV
  | ---------------------------
  | Total energy                  :        -924.99312666 Ha      -25170.34362928 eV
  | Total energy, T -> 0          :        -924.99312666 Ha      -25170.34362928 eV  <-- do not rely on this value for anything but (periodic) metals
  | Electronic free energy        :        -924.99312666 Ha      -25170.34362928 eV

  Derived energy quantities:
  | Kinetic energy                :         922.76623030 Ha       25109.74669638 eV
  | Electrostatic energy          :       -1711.69111831 Ha      -46577.48516553 eV
  | Energy correction for multipole
  | error in Hartree potential    :          -0.10543092 Ha          -2.86892120 eV
  | Sum of eigenvalues per atom                           :        -341.11088688 eV
  | Total energy (T->0) per atom                          :        -599.29389594 eV  <-- do not rely on this value for anything but (periodic) metals
  | Electronic free energy per atom                       :        -599.29389594 eV
  End evaluation of scaled ZORA corrections.
  | Time for scaled ZORA corrections           :        3.411 s           3.584 s
------------------------------------------------------------

  Energy and forces in a compact form:
  | Total energy uncorrected      :         -0.251703436292801E+05 eV
  | Total energy corrected        :         -0.251703436292801E+05 eV  <-- do not rely on this value for anything but (periodic) metals
  | Electronic free energy        :         -0.251703436292801E+05 eV

  ------------------------------------ 
  Start decomposition of the XC Energy 
  ------------------------------------ 
  X and C from original XC functional choice 
  Hartree-Fock Energy :          0.000000000 Ha              0.000000000 eV
  X Energy            :       -130.682135310 Ha          -3556.041831189 eV
  C Energy            :         -5.386103340 Ha           -146.563328944 eV
  Total XC Energy     :       -136.068238650 Ha          -3702.605160133 eV
  ------------------------------------ 
  LDA X and C from self-consistent density 
  X Energy LDA        :       -118.323323558 Ha          -3219.741452654 eV
  C Energy LDA        :        -10.404281538 Ha           -283.114905381 eV
  ------------------------------------ 
  End decomposition of the XC Energy 
  ------------------------------------ 

------------------------------------------------------------

------------------------------------------------------------------------------
  Final output of selected total energy values:

  The following output summarizes some interesting total energy values
  at the end of a run (AFTER all relaxation, molecular dynamics, etc.).

  | Total energy of the DFT / Hartree-Fock s.c.f. calculation      :         -25170.343629280 eV
  | Final zero-broadening corrected energy (caution - metals only) :         -25170.343629280 eV
  | For reference only, the value of 1 Hartree used in FHI-aims is :             27.211384500 eV

  Before relying on these values, please be sure to understand exactly which
  total energy value is referred to by a given number. Different objects may
  all carry the same name 'total energy'. Definitions:

  Total energy of the DFT / Hartree-Fock s.c.f. calculation:
  | Note that this energy does not include ANY quantities calculated after the
  | s.c.f. cycle, in particular not ANY RPA, MP2, etc. many-body perturbation terms.
  | Scalar relativistic effects have been included in the 'scaled ZORA' approximation.

  Final zero-broadening corrected energy:
  | For metallic systems only, a broadening of the occupation numbers at the Fermi
  | level can be extrapolated back to zero broadening by an electron-gas inspired
  | formula. For all systems that are not real metals, this value can be
  | meaningless and should be avoided.

------------------------------------------------------------------------------
  Methods described in the following list of references were used in this FHI-aims run.
  If you publish the results, please make sure to cite these reference if they apply.
  FHI-aims is an academic code, and for our developers (often, Ph.D. students
  and postdocs), scientific credit in the community is essential.
  Thank you for helping us!

  For any use of FHI-aims, please cite:

    Volker Blum, Ralf Gehrke, Felix Hanke, Paula Havu, Ville Havu,
    Xinguo Ren, Karsten Reuter, and Matthias Scheffler
    'Ab initio molecular simulations with numeric atom-centered orbitals'
    Computer Physics Communications 180, 2175-2196 (2009)
    http://dx.doi.org/10.1016/j.cpc.2009.06.022


  The scalable eigensolver library ELPA was used in your run.
  ELPA is essential especially for large systems on hundreds or thousands of CPUs.
  For ELPA, please cite:

    Andreas Marek, Volker Blum, Rainer Johanni, Ville Havu, Bruno Lang,
    Thomas Auckenthaler, Alexander Heinecke, Hans-Joachim Bungartz, and Hermann Lederer,
    'The ELPA Library - Scalable Parallel Eigenvalue Solutions
    for Electronic Structure Theory and Computational Science'
    The Journal of Physics: Condensed Matter 26, 213201 (2014).
    http://dx.doi.org/10.1088/0953-8984/26/21/213201


  The ELSI infrastructure was used in your run to solve the Kohn-Sham electronic structure.
  Please check out http://elsi-interchange.org to learn more.
  If scalability is important for your project, please acknowledge ELSI by citing:

    V. W-z. Yu, F. Corsetti, A. Garcia, W. P. Huhn, M. Jacquelin, W. Jia,
    B. Lange, L. Lin, J. Lu, W. Mi, A. Seifitokaldani, A. Vazquez-Mayagoitia,
    C. Yang, H. Yang, and V. Blum
    'ELSI: A unified software interface for Kohn-Sham electronic structure solvers'
    Computer Physics Communications 222, 267-285 (2018).
    http://dx.doi.org/10.1016/j.cpc.2017.09.007


  For the real-space grid partitioning and parallelization used in this calculation, please cite:

    Ville Havu, Volker Blum, Paula Havu, and Matthias Scheffler,
    'Efficient O(N) integration for all-electron electronic structure calculation'
    'using numerically tabulated basis functions'
    Journal of Computational Physics 228, 8367-8379 (2009).
    http://dx.doi.org/10.1016/j.jcp.2009.08.008

  Of course, there are many other important community references, e.g., those cited in the
  above references. Our list is limited to references that describe implementations in the
  FHI-aims code. The reason is purely practical (length of this list) - please credit others as well.

------------------------------------------------------------
          Leaving FHI-aims.
          Date     :  20210620, Time     :  175058.079

          Computational steps:
          | Number of self-consistency cycles          :           15
          | Number of SCF (re)initializations          :            1

          Detailed time accounting                     :  max(cpu_time)    wall_clock(cpu1)
          | Total time                                 :       58.307 s          58.675 s
          | Preparation time                           :        0.195 s           0.213 s
          | Boundary condition initalization           :        0.001 s           0.005 s
          | Grid partitioning                          :        0.576 s           0.580 s
          | Preloading free-atom quantities on grid    :        0.014 s           0.017 s
          | Free-atom superposition energy             :        0.050 s           0.050 s
          | Total time for integrations                :       32.557 s          32.567 s
          | Total time for solution of K.-S. equations :        1.773 s           1.794 s
          | Total time for density update              :       12.507 s          12.474 s
          | Total time for mixing                      :        0.096 s           0.098 s
          | Total time for Hartree multipole update    :        0.125 s           0.131 s
          | Total time for Hartree multipole sum       :        6.211 s           6.214 s
          | Total time for total energy evaluation     :        0.006 s           0.030 s
          | Total time for scaled ZORA corrections     :        3.411 s           3.584 s

          Partial memory accounting:
          | Residual value for overall tracked memory usage across tasks :     0.000000 MB (should be 0.000000 MB)
          | Peak values for overall tracked memory usage (after allocating zora_vector2):
          |   Minimum:       20.119 MB (on task 49)
          |   Maximum:       25.453 MB (on task 33)
          |   Average:       22.752 MB
          | Largest tracked array allocation (hamiltonian_shell):
          |   Minimum:        5.184 MB (on task  1)
          |   Maximum:        5.184 MB (on task  1)
          |   Average:        5.184 MB
          Note:  These values currently only include a subset of arrays which are explicitly tracked.
          The "true" memory usage will be greater.

          Have a nice day.
------------------------------------------------------------
