  MPI-parallelism will be employed.
------------------------------------------------------------
          Invoking FHI-aims ...
          Version 180607
          Git rev. (modified): 6724847 Fix JSON memory corruption in scf_solver
          Compiled on 2018/06/27 at 16:00:31 on host coe.psc.edu.

          When using FHI-aims, please cite the following reference:

          Volker Blum, Ralf Gehrke, Felix Hanke, Paula Havu,
          Ville Havu, Xinguo Ren, Karsten Reuter, and Matthias Scheffler,
          'Ab Initio Molecular Simulations with Numeric Atom-Centered Orbitals',
          Computer Physics Communications 180, 2175-2196 (2009)

          For any questions about FHI-aims, please visit the aimsclub website
          with its forums and wiki. Contributions to both the forums and the
          wiki are warmly encouraged - they are for you, and everyone is welcome there.

------------------------------------------------------------



  Date     :  20210620, Time     :  173147.798
  Time zero on CPU 1             :   0.272144000000000E+00  s.
  Internal wall clock time zero  :           393442307.798  s.

  FHI-aims created a unique identifier for this run for later identification
  aims_uuid : D8CD73FD-76E6-40B2-ADA6-8B83653B90B4

  Using       56 parallel tasks.
  Task        0 on host d001 reporting.
  Task        1 on host d001 reporting.
  Task        2 on host d001 reporting.
  Task        3 on host d001 reporting.
  Task        4 on host d001 reporting.
  Task        5 on host d001 reporting.
  Task        6 on host d001 reporting.
  Task        7 on host d001 reporting.
  Task        8 on host d001 reporting.
  Task        9 on host d001 reporting.
  Task       10 on host d001 reporting.
  Task       11 on host d001 reporting.
  Task       12 on host d001 reporting.
  Task       13 on host d001 reporting.
  Task       14 on host d001 reporting.
  Task       15 on host d001 reporting.
  Task       16 on host d001 reporting.
  Task       17 on host d001 reporting.
  Task       18 on host d001 reporting.
  Task       19 on host d001 reporting.
  Task       20 on host d001 reporting.
  Task       21 on host d001 reporting.
  Task       22 on host d001 reporting.
  Task       23 on host d001 reporting.
  Task       24 on host d001 reporting.
  Task       25 on host d001 reporting.
  Task       26 on host d001 reporting.
  Task       27 on host d001 reporting.
  Task       28 on host d001 reporting.
  Task       29 on host d001 reporting.
  Task       30 on host d001 reporting.
  Task       31 on host d001 reporting.
  Task       32 on host d001 reporting.
  Task       33 on host d001 reporting.
  Task       34 on host d001 reporting.
  Task       35 on host d001 reporting.
  Task       36 on host d001 reporting.
  Task       37 on host d001 reporting.
  Task       38 on host d001 reporting.
  Task       39 on host d001 reporting.
  Task       40 on host d001 reporting.
  Task       41 on host d001 reporting.
  Task       42 on host d001 reporting.
  Task       43 on host d001 reporting.
  Task       44 on host d001 reporting.
  Task       45 on host d001 reporting.
  Task       46 on host d001 reporting.
  Task       47 on host d001 reporting.
  Task       48 on host d001 reporting.
  Task       49 on host d001 reporting.
  Task       50 on host d001 reporting.
  Task       51 on host d001 reporting.
  Task       52 on host d001 reporting.
  Task       53 on host d001 reporting.
  Task       54 on host d001 reporting.
  Task       55 on host d001 reporting.

  Performing system and environment tests:
  *** Environment variable OMP_NUM_THREADS is not set
  *** For performance reasons you might want to set it to 1
  | Stacksize not measured: no C compiler
  | Checking for scalapack...
  | Testing pdtran()...
  | All pdtran() tests passed.

  Obtaining array dimensions for all initial allocations:
  
  -----------------------------------------------------------------------
  Parsing control.in (first pass over file, find array dimensions only).
  The contents of control.in will be repeated verbatim below
  unless switched off by setting 'verbatim_writeout .false.' .
  in the first line of control.in .
  -----------------------------------------------------------------------
  
  #===============================================================================
  # FHI-aims file: ./Runs/es/control.in
  # Created using the Atomic Simulation Environment (ASE)
  # Mon Jan 13 16:04:38 2020
  #===============================================================================
  xc                                 pbe
  relativistic                       zora scalar 1e-12
  occupation_type                    gaussian 0.0001
  load_balancing                     .true.
  KS_method                          scalapack_fast
  mixer                              pulay
  n_max_pulay                        5
  charge_mix_param                   0.4
  sc_accuracy_etot                   1e-6
  sc_accuracy_eev                    1e-4
  sc_accuracy_rho                    1e-6
  sc_iter_limit                      100
  prodbas_threshold                  1e-4
  basis_threshold                    1e-5
  override_illconditioning           .true.
  use_logsbt                         .true.
  spin                               none
  charge                             0
  #===============================================================================
  
  ################################################################################
  #
  #  FHI-aims code project
  # Volker Blum, Fritz Haber Institute Berlin, 2009
  #
  #  Suggested "tight" defaults for H atom (to be pasted into control.in file)
  #
  ################################################################################
    species        H
  #     global species definitions
      nucleus             1
      mass                1.00794
  #
      l_hartree           6
  #
      cut_pot             4.0  2.0  1.0
      basis_dep_cutoff    1e-4
  #
      radial_base         24 7.0
      radial_multiplier   2
      angular_grids       specified
        division   0.1930   50
        division   0.3175  110
        division   0.4293  194
        division   0.5066  302
        division   0.5626  434
  #      division   0.5922  590
  #      division   0.6227  974
  #      division   0.6868 1202
  #      outer_grid  770
        outer_grid  434
  ################################################################################
  #
  #  Definition of "minimal" basis
  #
  ################################################################################
  #     valence basis states
      valence      1  s   1.
  #     ion occupancy
      ion_occ      1  s   0.5
  ################################################################################
  #
  #  Suggested additional basis functions. For production calculations,
  #  uncomment them one after another (the most important basis functions are
  #  listed first).
  #
  #  Basis constructed for dimers: 0.5 A, 0.7 A, 1.0 A, 1.5 A, 2.5 A
  #
  ################################################################################
  #  "First tier" - improvements: -1014.90 meV to -62.69 meV
       hydro 2 s 2.1
       hydro 2 p 3.5
  #  "Second tier" - improvements: -12.89 meV to -1.83 meV
       hydro 1 s 0.85
       hydro 2 p 3.7
       hydro 2 s 1.2
       hydro 3 d 7
  #  "Third tier" - improvements: -0.25 meV to -0.12 meV
  #     hydro 4 f 11.2
  #     hydro 3 p 4.8
  #     hydro 4 d 9
  #     hydro 3 s 3.2
  ################################################################################
  #
  # For methods that use the localized form of the "resolution of identity" for
  # the two-electron Coulomb operator (RI_method LVL), particularly Hartree-Fock and
  # hybrid density functional calculations, the highest accuracy can be obtained by
  # uncommenting the line beginning with "for_aux"  below, thus adding an extra g radial
  # function to the construction of the product basis set for the expansion.
  # See Ref. New J. Phys. 17, 093020 (2015) for more information, particularly Figs. 1 and 6.
  #
  ################################################################################
  #
  # for_aux hydro 5 g 6.0
  ################################################################################
  #
  #  FHI-aims code project
  # Volker Blum, Fritz Haber Institute Berlin, 2009
  #
  #  Suggested "tight" defaults for C atom (to be pasted into control.in file)
  #
  ################################################################################
    species        C
  #     global species definitions
      nucleus             6
      mass                12.0107
  #
      l_hartree           6
  #
      cut_pot             4.0  2.0  1.0
      basis_dep_cutoff    1e-4
  #
      radial_base         34 7.0
      radial_multiplier   2
      angular_grids specified
        division   0.2187   50
        division   0.4416  110
        division   0.6335  194
        division   0.7727  302
        division   0.8772  434
  #      division   0.9334  590
  #      division   0.9924  770
  #      division   1.0230  974
  #      division   1.5020 1202
  #     outer_grid  974
        outer_grid  434
  ################################################################################
  #
  #  Definition of "minimal" basis
  #
  ################################################################################
  #     valence basis states
      valence      2  s   2.
      valence      2  p   2.
  #     ion occupancy
      ion_occ      2  s   1.
      ion_occ      2  p   1.
  ################################################################################
  #
  #  Suggested additional basis functions. For production calculations,
  #  uncomment them one after another (the most important basis functions are
  #  listed first).
  #
  #  Constructed for dimers: 1.0 A, 1.25 A, 1.5 A, 2.0 A, 3.0 A
  #
  ################################################################################
  #  "First tier" - improvements: -1214.57 meV to -155.61 meV
       hydro 2 p 1.7
       hydro 3 d 6
       hydro 2 s 4.9
  #  "Second tier" - improvements: -67.75 meV to -5.23 meV
       hydro 4 f 9.8
       hydro 3 p 5.2
       hydro 3 s 4.3
       hydro 5 g 14.4
       hydro 3 d 6.2
  #  "Third tier" - improvements: -2.43 meV to -0.60 meV
  #     hydro 2 p 5.6
  #     hydro 2 s 1.4
  #     hydro 3 d 4.9
  #     hydro 4 f 11.2
  #  "Fourth tier" - improvements: -0.39 meV to -0.18 meV
  #     hydro 2 p 2.1
  #     hydro 5 g 16.4
  #     hydro 4 d 13.2
  #     hydro 3 s 13.6
  #     hydro 4 f 17.6
  #  Further basis functions - improvements: -0.08 meV and below
  #     hydro 3 s 2
  #     hydro 3 p 6
  #     hydro 4 d 20
  ################################################################################
  #
  # For methods that use the localized form of the "resolution of identity" for
  # the two-electron Coulomb operator (RI_method LVL), particularly Hartree-Fock and
  # hybrid density functional calculations, the highest accuracy can be obtained by
  # uncommenting the line beginning with "for_aux"  below, thus adding an extra g radial
  # function to the construction of the product basis set for the expansion.
  # See Ref. New J. Phys. 17, 093020 (2015) for more information, particularly Figs. 1 and 6.
  #
  ################################################################################
  #
  # for_aux hydro 5 g 6.0
  
  -----------------------------------------------------------------------
  Completed first pass over input file control.in .
  -----------------------------------------------------------------------
  
  
  -----------------------------------------------------------------------
  Parsing geometry.in (first pass over file, find array dimensions only).
  The contents of geometry.in will be repeated verbatim below
  unless switched off by setting 'verbatim_writeout .false.' .
  in the first line of geometry.in .
  -----------------------------------------------------------------------
  
  #=======================================================
  # FHI-aims file: geometry.in
  # Created using the Atomic Simulation Environment (ASE)
  # Sun Jun 20 15:47:01 2021
  #=======================================================
  atom 19.1493420000000008 26.7624490000000002 29.7587219999999988 C
  atom 19.0229339999999993 26.7236079999999987 28.4217830000000014 C
  atom 18.7833819999999996 27.9115229999999990 30.4649859999999997 C
  atom 19.5416770000000000 25.9007399999999990 30.2960969999999996 H
  atom 18.6202989999999993 27.8549380000000006 27.6848120000000009 C
  atom 19.2635000000000005 25.8135189999999994 27.8728340000000010 H
  atom 18.3042769999999990 29.0328599999999994 29.8248609999999985 C
  atom 18.9089320000000001 27.9198459999999997 31.5445759999999993 H
  atom 18.5516329999999989 27.8828640000000014 26.2852770000000007 C
  atom 18.3081789999999991 29.0536990000000017 28.4040670000000013 C
  atom 17.8626280000000008 30.2413179999999997 30.5476589999999995 C
  atom 18.2332700000000010 29.0025790000000008 25.6227119999999999 C
  atom 18.7929789999999990 26.9662070000000007 25.7425880000000014 H
  atom 18.0756499999999996 30.2584000000000017 27.6895360000000004 C
  atom 17.3928870000000018 30.2257449999999999 31.8869609999999994 C
  atom 17.8852559999999983 31.4711779999999983 29.8709209999999992 C
  atom 18.1815360000000013 29.0071809999999992 24.5347359999999988 H
  atom 18.0179070000000010 30.1956020000000009 26.3100790000000018 C
  atom 17.9781119999999994 31.5162830000000014 28.4359549999999999 C
  atom 16.9223660000000002 29.0484030000000004 32.5058269999999965 C
  atom 17.3195389999999989 31.4588579999999993 32.6239309999999989 C
  atom 17.7830370000000002 32.7066969999999984 30.5984440000000006 C
  atom 17.8224419999999988 31.0944779999999987 25.7290059999999983 H
  atom 17.9679679999999991 32.7244420000000034 27.8017350000000008 C
  atom 16.9066820000000000 28.1205740000000013 31.9444769999999991 H
  atom 16.4502850000000009 29.0745649999999998 33.7837150000000008 C
  atom 16.8357530000000004 31.4374140000000004 33.9809490000000025 C
  atom 17.6933030000000002 32.6719289999999987 32.0109700000000004 C
  atom 17.7003249999999994 33.9101830000000035 29.8449390000000001 C
  atom 17.7939609999999995 33.9170299999999969 28.5068179999999991 C
  atom 18.0644129999999983 32.7761879999999977 26.7196640000000016 H
  atom 16.0765990000000016 28.1576869999999992 34.2393610000000024 H
  atom 16.4182920000000010 30.2523219999999995 34.5171419999999998 C
  atom 16.7975180000000002 32.6938900000000032 34.7403589999999980 C
  atom 17.9297329999999988 33.8564760000000007 32.8660449999999997 C
  atom 17.4969789999999996 34.8403089999999978 30.3703840000000014 H
  atom 17.7043830000000000 34.8521229999999989 27.9559789999999992 H
  atom 16.0337600000000009 30.2113270000000007 35.5334289999999982 H
  atom 16.2442850000000014 32.7714950000000016 36.0040740000000028 C
  atom 17.3866450000000015 33.8631400000000014 34.1852689999999981 C
  atom 18.6975489999999986 34.9219340000000003 32.4644899999999978 C
  atom 15.7737649999999991 31.9011719999999990 36.4541690000000003 H
  atom 16.2739370000000001 33.9536009999999990 36.7375010000000017 C
  atom 17.4716969999999989 35.0416469999999975 34.9765670000000028 C
  atom 19.2444610000000011 34.8736820000000023 31.5275689999999997 H
  atom 18.8052300000000017 36.0720900000000029 33.2593320000000006 C
  atom 15.8160570000000007 33.9641850000000005 37.7252069999999975 H
  atom 16.8763280000000009 35.0526780000000002 36.2509119999999996 C
  atom 18.1809900000000013 36.1471190000000036 34.4510030000000000 C
  atom 19.4125370000000004 36.9020849999999996 32.9018299999999968 H
  atom 16.9336020000000005 35.9697159999999982 36.8398979999999980 H
  atom 18.2399810000000002 37.0602700000000027 35.0477840000000000 H
  
  -----------------------------------------------------------------------
  Completed first pass over input file geometry.in .
  -----------------------------------------------------------------------
  

  Basic array size parameters:
  | Number of species                 :        2
  | Number of atoms                   :       52
  | Max. basis fn. angular momentum   :        4
  | Max. atomic/ionic basis occupied n:        2
  | Max. number of basis fn. types    :        2
  | Max. radial fns per species/type  :        8
  | Max. logarithmic grid size        :     1277
  | Max. radial integration grid size :       69
  | Max. angular integration grid size:      434
  | Max. angular grid division number :        8
  | Radial grid for Hartree potential :     1277
  | Number of spin channels           :        1

------------------------------------------------------------
          Reading file control.in.
------------------------------------------------------------
  XC: Using PBE gradient-corrected functionals.
  Scalar relativistic treatment of kinetic energy: ZORA.
  Threshold value for ZORA:   0.100000E-11
  Occupation type: Gaussian broadening, width =   0.100000E-03 eV.
  Since 'load_balancing .true.' is present in control.in, automatically turning on 'use_local_index .true.'.
  Using load balancing for integrations.
  Kohn-Sham electronic structure solved by the ELSI library.
  Using pulay charge density mixing.
  Pulay mixing - number of memorized iterations:    5
  Charge density mixing - mixing parameter:     0.4000
  Convergence accuracy of total energy:  0.1000E-05
  Convergence accuracy of sum of eigenvalues:  0.1000E-03
  Convergence accuracy of self-consistent charge density:  0.1000E-05
  Maximum number of s.-c. iterations  :   100
  * Ignoring prodbas_threshold
  Threshold for basis singularities:  0.1000E-04
  override_illconditioning: Explicitly overriding any built-in checks for an ill-conditioned overlap matrix.
  *** WARNING: If you use this flag, you should really know what you are doing.
  *** DO NOT keep this flag set by default in all your control.in files.
  Using 1D integrations for auxiliary 2-center integrals.
  Spin treatment: No spin polarisation.
  Charge =   0.000000E+00: Neutral system requested explicitly.
 
  Reading configuration options for species H                   .
  | Found nuclear charge :   1.0000
  | Found atomic mass :    1.00794000000000      amu
  | Found l_max for Hartree potential  :   6
  | Found cutoff potl. onset [A], width [A], scale factor :    4.00000    2.00000    1.00000
  | Threshold for basis-dependent cutoff potential is   0.100000E-03
  | Found data for basic radial integration grid :    24 points, outermost radius =    7.000 A
  | Found multiplier for basic radial grid :   2
  | Found angular grid specification: user-specified.
  | Specified grid contains     6 separate shells.
  | Check grid settings after all constraints further below.
  | Found free-atom valence shell :  1 s   1.000
  | No ionic wave fns used. Skipping ion_occ.
  | Found hydrogenic basis function :  2 s   2.100
  | Found hydrogenic basis function :  2 p   3.500
  | Found hydrogenic basis function :  1 s   0.850
  | Found hydrogenic basis function :  2 p   3.700
  | Found hydrogenic basis function :  2 s   1.200
  | Found hydrogenic basis function :  3 d   7.000
  Species H                   : Missing cutoff potential type.
  Defaulting to exp(1/x)/(1-x)^2 type cutoff potential.
  Species H : No 'logarithmic' tag. Using default grid for free atom:
  | Default logarithmic grid data [bohr] : 0.1000E-03 0.1000E+03 0.1012E+01
  Species H : On-site basis accuracy parameter (for Gram-Schmidt orthonormalisation) not specified.
  Using default value basis_acc =  0.1000000E-03.
  Species H                   : Using default innermost maximum threshold i_radial=  2 for radial functions.
  Species H                   : Default cutoff onset for free atom density etc. : 0.40000000E+01 AA.
  Species H                   : Basic radial grid will be enhanced according to radial_multiplier =   2, to contain    49 grid points.
 
  Reading configuration options for species C                   .
  | Found nuclear charge :   6.0000
  | Found atomic mass :    12.0107000000000      amu
  | Found l_max for Hartree potential  :   6
  | Found cutoff potl. onset [A], width [A], scale factor :    4.00000    2.00000    1.00000
  | Threshold for basis-dependent cutoff potential is   0.100000E-03
  | Found data for basic radial integration grid :    34 points, outermost radius =    7.000 A
  | Found multiplier for basic radial grid :   2
  | Found angular grid specification: user-specified.
  | Specified grid contains     6 separate shells.
  | Check grid settings after all constraints further below.
  | Found free-atom valence shell :  2 s   2.000
  | Found free-atom valence shell :  2 p   2.000
  | No ionic wave fns used. Skipping ion_occ.
  | No ionic wave fns used. Skipping ion_occ.
  | Found hydrogenic basis function :  2 p   1.700
  | Found hydrogenic basis function :  3 d   6.000
  | Found hydrogenic basis function :  2 s   4.900
  | Found hydrogenic basis function :  4 f   9.800
  | Found hydrogenic basis function :  3 p   5.200
  | Found hydrogenic basis function :  3 s   4.300
  | Found hydrogenic basis function :  5 g  14.400
  | Found hydrogenic basis function :  3 d   6.200
  Species C                   : Missing cutoff potential type.
  Defaulting to exp(1/x)/(1-x)^2 type cutoff potential.
  Species C : No 'logarithmic' tag. Using default grid for free atom:
  | Default logarithmic grid data [bohr] : 0.1000E-03 0.1000E+03 0.1012E+01
  Species C : On-site basis accuracy parameter (for Gram-Schmidt orthonormalisation) not specified.
  Using default value basis_acc =  0.1000000E-03.
  Species C                   : Using default innermost maximum threshold i_radial=  2 for radial functions.
  Species C                   : Default cutoff onset for free atom density etc. : 0.40000000E+01 AA.
  Species C                   : Basic radial grid will be enhanced according to radial_multiplier =   2, to contain    69 grid points.
 
  Finished reading input file 'control.in'. Consistency checks are next.
 
  MPI_IN_PLACE appears to work with this MPI implementation.
  | Keeping use_mpi_in_place .true. (see manual).
  Target number of points in a grid batch is not set. Defaulting to  100
  Method for grid partitioning is not set. Defaulting to parallel hash+maxmin partitioning.
  Batch size limit is not set. Defaulting to    200
  By default, will store active basis functions for each batch.
  If in need of memory, prune_basis_once .false. can be used to disable this option.
  communication_type for Hartree potential was not specified.
  Defaulting to calc_hartree .
  Pulay mixer: Number of initial linear mixing iterations not set.
  Defaulting to    0 iterations.
  Work space size for distributed Hartree potential not set.
  Defaulting to   0.200000E+03 MB.
  Algorithm-dependent basis array size parameters:
  | n_max_pulay                         :        5
  Presetting      1001 iterations before the initial mixing cycle
  is restarted anyway using the sc_init_iter criterion / keyword.
  Presetting a factor      1.000 between actual scf density residual
  and density convergence criterion sc_accuracy_rho below which sc_init_iter
  takes no effect.
  Calculation of forces was not defined in control.in. No forces will be calculated.
  Geometry relaxation not requested: no relaxation will be performed.
  No accuracy limit for integral partition fn. given. Defaulting to  0.1000E-14.
  No threshold value for u(r) in integrations given. Defaulting to  0.1000E-05.
  No accuracy for occupation numbers given. Defaulting to  0.1000E-12.
  No threshold value for occupation numbers given. Defaulting to  0.0000E+00.
  No accuracy for fermi level given. Defaulting to  0.1000E-19.
  Maximum # of iterations to find E_F not set. Defaulting to  200.
  Will not use alltoall communication since running on < 1024 CPUs.
  partition_type (choice of integration weights) for integrals was not specified.
  | Using a version of the partition function of Stratmann and coworkers ('stratmann_sparse').
  | At each grid point, the set of atoms used to build the partition table is smoothly restricted to
  | only those atoms whose free-atom density would be non-zero at that grid point.
  Partitioning for Hartree potential was not defined. Using partition_type for integrals.
  | Adjusted default value of keyword multip_moments_threshold to:       0.10000000E-11
  | This value may affect high angular momentum components of the Hartree potential in periodic systems.
  No q(lm)/r^(l+1) cutoff set for long-range Hartree potential.
  | Using default value of  0.100000E-09 .
  | Verify using the multipole_threshold keyword.
  Defaulting to new monopole extrapolation.
  Density update method: automatic selection selected.
 * Warning: use_local_index and/or load_balancing needs packed_matrix_format = index
 * Changing the default setting to packed_matrix_format = index
------------------------------------------------------------


------------------------------------------------------------
          Reading geometry description geometry.in.
------------------------------------------------------------
  Input structure read successfully.
  The structure contains       52 atoms,  and a total of        222.000 electrons.

  Input geometry:
  | No unit cell requested.
  | Atomic structure:
  |       Atom                x [A]            y [A]            z [A]
  |    1: Species C            19.14934200       26.76244900       29.75872200
  |    2: Species C            19.02293400       26.72360800       28.42178300
  |    3: Species C            18.78338200       27.91152300       30.46498600
  |    4: Species H            19.54167700       25.90074000       30.29609700
  |    5: Species C            18.62029900       27.85493800       27.68481200
  |    6: Species H            19.26350000       25.81351900       27.87283400
  |    7: Species C            18.30427700       29.03286000       29.82486100
  |    8: Species H            18.90893200       27.91984600       31.54457600
  |    9: Species C            18.55163300       27.88286400       26.28527700
  |   10: Species C            18.30817900       29.05369900       28.40406700
  |   11: Species C            17.86262800       30.24131800       30.54765900
  |   12: Species C            18.23327000       29.00257900       25.62271200
  |   13: Species H            18.79297900       26.96620700       25.74258800
  |   14: Species C            18.07565000       30.25840000       27.68953600
  |   15: Species C            17.39288700       30.22574500       31.88696100
  |   16: Species C            17.88525600       31.47117800       29.87092100
  |   17: Species H            18.18153600       29.00718100       24.53473600
  |   18: Species C            18.01790700       30.19560200       26.31007900
  |   19: Species C            17.97811200       31.51628300       28.43595500
  |   20: Species C            16.92236600       29.04840300       32.50582700
  |   21: Species C            17.31953900       31.45885800       32.62393100
  |   22: Species C            17.78303700       32.70669700       30.59844400
  |   23: Species H            17.82244200       31.09447800       25.72900600
  |   24: Species C            17.96796800       32.72444200       27.80173500
  |   25: Species H            16.90668200       28.12057400       31.94447700
  |   26: Species C            16.45028500       29.07456500       33.78371500
  |   27: Species C            16.83575300       31.43741400       33.98094900
  |   28: Species C            17.69330300       32.67192900       32.01097000
  |   29: Species C            17.70032500       33.91018300       29.84493900
  |   30: Species C            17.79396100       33.91703000       28.50681800
  |   31: Species H            18.06441300       32.77618800       26.71966400
  |   32: Species H            16.07659900       28.15768700       34.23936100
  |   33: Species C            16.41829200       30.25232200       34.51714200
  |   34: Species C            16.79751800       32.69389000       34.74035900
  |   35: Species C            17.92973300       33.85647600       32.86604500
  |   36: Species H            17.49697900       34.84030900       30.37038400
  |   37: Species H            17.70438300       34.85212300       27.95597900
  |   38: Species H            16.03376000       30.21132700       35.53342900
  |   39: Species C            16.24428500       32.77149500       36.00407400
  |   40: Species C            17.38664500       33.86314000       34.18526900
  |   41: Species C            18.69754900       34.92193400       32.46449000
  |   42: Species H            15.77376500       31.90117200       36.45416900
  |   43: Species C            16.27393700       33.95360100       36.73750100
  |   44: Species C            17.47169700       35.04164700       34.97656700
  |   45: Species H            19.24446100       34.87368200       31.52756900
  |   46: Species C            18.80523000       36.07209000       33.25933200
  |   47: Species H            15.81605700       33.96418500       37.72520700
  |   48: Species C            16.87632800       35.05267800       36.25091200
  |   49: Species C            18.18099000       36.14711900       34.45100300
  |   50: Species H            19.41253700       36.90208500       32.90183000
  |   51: Species H            16.93360200       35.96971600       36.83989800
  |   52: Species H            18.23998100       37.06027000       35.04778400
  |

  | The smallest distance between any two atoms is         1.08453975 AA.
  |
  | The first atom of this pair is atom number                     20 .
  | The second atom of this pair is atom number                    25 .

  Number of empty states per atom not set in control.in - providing a guess from actual geometry.
  | Total number of empty states used during s.c.f. cycle:      129
  If you use a very high smearing, use empty_states (per atom!) in control.in to increase this value.

  Structure-dependent array size parameters: 
  | Maximum number of distinct radial functions  :       18
  | Maximum number of basis functions            :     1596
  | Number of Kohn-Sham states (occupied + empty):      240
------------------------------------------------------------

------------------------------------------------------------
          Preparing all fixed parts of the calculation.
------------------------------------------------------------
  Determining machine precision:
    2.225073858507201E-308
  Setting up grids for atomic and cluster calculations.

  Creating wave function, potential, and density for free atoms.

  Species: H

  List of occupied orbitals and eigenvalues:
    n    l              occ      energy [Ha]    energy [eV]
    1    0           1.0000        -0.238386        -6.4868


  Species: C

  List of occupied orbitals and eigenvalues:
    n    l              occ      energy [Ha]    energy [eV]
    1    0           2.0000       -10.049212      -273.4530
    2    0           2.0000        -0.504761       -13.7352
    2    1           2.0000        -0.193631        -5.2690

  Creating fixed part of basis set: Ionic, confined, hydrogenic.
 
  H                    hydrogenic:
 
  List of hydrogenic basis orbitals: 
    n    l      effective z      eigenvalue [eV]  inner max. [A]     outer max. [A]     outer radius [A]   
    2    0         2.100000       -14.9965           0.193243           1.317208           5.373006
    2    1         3.500000       -41.6672           0.602369           0.602369           4.056063
    1    0         0.850000        -9.8292           0.624871           0.624871           5.373006
    2    1         3.700000       -46.5653           0.573622           0.573622           3.910002
    2    0         1.200000        -4.5995           0.334980           2.228188           5.505995
    3    2         7.000000       -74.0753           0.680699           0.680699           3.769201
 
 
  C                    hydrogenic:
 
  List of hydrogenic basis orbitals: 
    n    l      effective z      eigenvalue [eV]  inner max. [A]     outer max. [A]     outer radius [A]   
    2    1         1.700000        -9.8152           1.245706           1.245706           5.401630
    3    2         6.000000       -54.4226           0.792453           0.792453           4.178599
    2    0         4.900000       -81.6681           0.082559           0.562749           3.353238
    4    3         9.800000       -81.6681           0.863254           0.863254           4.028125
    3    1         5.200000       -40.8774           0.305389           1.215618           4.898362
    3    0         4.300000       -27.9508           0.091041           1.610311           5.401630
    5    4        14.400000      -112.8510           0.917666           0.917666           3.883070
    3    2         6.200000       -58.1113           0.763917           0.763917           4.077671
 

  Adding cutoff potential to free-atom effective potential.
  Creating atomic-like basis functions for current effective potential.

  Species H                   :

  List of atomic basis orbitals and eigenvalues:
    n    l      energy [Ha]    energy [eV]    outer radius [A]
    1    0        -0.238386        -6.4868       5.373006


  Species C                   :

  List of atomic basis orbitals and eigenvalues:
    n    l      energy [Ha]    energy [eV]    outer radius [A]
    1    0       -10.049212      -273.4530       1.934409
    2    0        -0.504761       -13.7352       5.271162
    2    1        -0.193631        -5.2690       5.401630

  Assembling full basis from fixed parts.
  | Species H :   atomic orbital   1 s accepted.
  | Species H :    hydro orbital   2 s accepted.
  | Species H :    hydro orbital   1 s accepted.
  | Species H :    hydro orbital   2 s accepted.
  | Species H :    hydro orbital   2 p accepted.
  | Species H :    hydro orbital   2 p accepted.
  | Species H :    hydro orbital   3 d accepted.
  | Species C :   atomic orbital   1 s accepted.
  | Species C :    hydro orbital   2 s accepted.
  | Species C :   atomic orbital   2 s accepted.
  | Species C :    hydro orbital   3 s accepted.
  | Species C :    hydro orbital   3 p accepted.
  | Species C :   atomic orbital   2 p accepted.
  | Species C :    hydro orbital   2 p accepted.
  | Species C :    hydro orbital   3 d accepted.
  | Species C :    hydro orbital   3 d accepted.
  | Species C :    hydro orbital   4 f accepted.
  | Species C :    hydro orbital   5 g accepted.
 
  Basis size parameters after reduction:
  | Total number of radial functions:       18
  | Total number of basis functions :     1596
 
  Per-task memory consumption for arrays in subroutine allocate_ext:
  |           4.450536MB.
  Testing on-site integration grid accuracy.
  |  Species  Function  <phi|h_atom|phi> (log., in eV)  <phi|h_atom|phi> (rad., in eV)
           1        1                 -6.4870767962                 -6.4871688290
           1        2                 13.5032046589                 13.5028982997
           1        3                 32.8195184817                 32.8119941656
           1        4                 33.8513856511                 33.7670005767 ***
           1        5                 28.8544614965                 28.8544615203
           1        6                 59.6326952547                 59.6327656460
           1        7                 60.2719308513                 60.2719305949
           2        8               -273.4529726040               -273.4529710464
           2        9                -10.7721037319                -10.7721022101
           2       10                 17.6044132601                 17.6044162063
           2       11                 53.7706460658                 53.7706913770
           2       12                 15.0973290362                 15.0973256030
           2       13                  3.8545134692                  3.8545724687
           2       14                 12.1156992592                 12.1182024431
           2       15                 29.4352039302                 29.4352041816
           2       16                 54.8741144708                 54.8740268729
           2       17                 59.3556032049                 59.3556031382
           2       18                 93.4551837154                 93.4551838009
 * Note: Onsite integrals marked "***" above are less accurate than
 * onsite_accuracy_threshold =    0.03000 eV. Usually, this is harmless.
 * When in doubt, tighten the "radial" and/or "radial_multiplier" flags to check.

  Preparing densities etc. for the partition functions (integrals / Hartree potential).

  Preparations completed.
  max(cpu_time)          :      0.196 s.
  Wall clock time (cpu1) :      0.180 s.
------------------------------------------------------------

------------------------------------------------------------
          Begin self-consistency loop: Initialization.

          Date     :  20210620, Time     :  173148.199
------------------------------------------------------------

  Initializing index lists of integration centers etc. from given atomic structure:
  | Number of centers in hartree potential         :        52
  | Number of centers in hartree multipole         :        52
  | Number of centers in electron density summation:        52
  | Number of centers in basis integrals           :        52
  | Number of centers in integrals                 :        52
  | Number of centers in hamiltonian               :        52
  * Using 56 tasks for Scalapack Eigenvalue solver.
  Detailed listing of tasks and assigned k-points:
  (for non-periodic systems, the "k-point" denotes an internal label only)
   Task     0 k-point     1 on d001
   Task     1 k-point     1 on d001
   Task     2 k-point     1 on d001
   Task     3 k-point     1 on d001
   Task     4 k-point     1 on d001
   Task     5 k-point     1 on d001
   Task     6 k-point     1 on d001
   Task     7 k-point     1 on d001
   Task     8 k-point     1 on d001
   Task     9 k-point     1 on d001
   Task    10 k-point     1 on d001
   Task    11 k-point     1 on d001
   Task    12 k-point     1 on d001
   Task    13 k-point     1 on d001
   Task    14 k-point     1 on d001
   Task    15 k-point     1 on d001
   Task    16 k-point     1 on d001
   Task    17 k-point     1 on d001
   Task    18 k-point     1 on d001
   Task    19 k-point     1 on d001
   Task    20 k-point     1 on d001
   Task    21 k-point     1 on d001
   Task    22 k-point     1 on d001
   Task    23 k-point     1 on d001
   Task    24 k-point     1 on d001
   Task    25 k-point     1 on d001
   Task    26 k-point     1 on d001
   Task    27 k-point     1 on d001
   Task    28 k-point     1 on d001
   Task    29 k-point     1 on d001
   Task    30 k-point     1 on d001
   Task    31 k-point     1 on d001
   Task    32 k-point     1 on d001
   Task    33 k-point     1 on d001
   Task    34 k-point     1 on d001
   Task    35 k-point     1 on d001
   Task    36 k-point     1 on d001
   Task    37 k-point     1 on d001
   Task    38 k-point     1 on d001
   Task    39 k-point     1 on d001
   Task    40 k-point     1 on d001
   Task    41 k-point     1 on d001
   Task    42 k-point     1 on d001
   Task    43 k-point     1 on d001
   Task    44 k-point     1 on d001
   Task    45 k-point     1 on d001
   Task    46 k-point     1 on d001
   Task    47 k-point     1 on d001
   Task    48 k-point     1 on d001
   Task    49 k-point     1 on d001
   Task    50 k-point     1 on d001
   Task    51 k-point     1 on d001
   Task    52 k-point     1 on d001
   Task    53 k-point     1 on d001
   Task    54 k-point     1 on d001
   Task    55 k-point     1 on d001
  Tasks:    56 split into      8 X      7 BLACS grid
  Calculating block size based on n_basis =         1596 max_nprow =            8 max_npcol =            7
  ScaLAPACK block size set to:           16
  Allocating        0.399 MB for ovlp
  Allocating        0.399 MB for ham
  Allocating        0.399 MB for eigenvec
  Required Scalapack workspace - INTEGER:            1 REAL:             1
  Partitioning the integration grid into batches with parallel hashing+maxmin method.
  | Number of batches:     7881
  | Maximal batch size:     199
  | Minimal batch size:      24
  | Average batch size:     110.995
  | Standard deviation of batch sizes:      28.698

  Integration load balanced across     56 MPI tasks.
  Work distribution over tasks is as follows:
  Task      0 has      15669 integration points.
  Task      1 has      15701 integration points.
  Task      2 has      15559 integration points.
  Task      3 has      15756 integration points.
  Task      4 has      15612 integration points.
  Task      5 has      15628 integration points.
  Task      6 has      15551 integration points.
  Task      7 has      15635 integration points.
  Task      8 has      15664 integration points.
  Task      9 has      15595 integration points.
  Task     10 has      15711 integration points.
  Task     11 has      15575 integration points.
  Task     12 has      15602 integration points.
  Task     13 has      15582 integration points.
  Task     14 has      15721 integration points.
  Task     15 has      15671 integration points.
  Task     16 has      15541 integration points.
  Task     17 has      15655 integration points.
  Task     18 has      15605 integration points.
  Task     19 has      15569 integration points.
  Task     20 has      15508 integration points.
  Task     21 has      15763 integration points.
  Task     22 has      15692 integration points.
  Task     23 has      15513 integration points.
  Task     24 has      15586 integration points.
  Task     25 has      15567 integration points.
  Task     26 has      15627 integration points.
  Task     27 has      15522 integration points.
  Task     28 has      15694 integration points.
  Task     29 has      15645 integration points.
  Task     30 has      15599 integration points.
  Task     31 has      15755 integration points.
  Task     32 has      15577 integration points.
  Task     33 has      15628 integration points.
  Task     34 has      15584 integration points.
  Task     35 has      15683 integration points.
  Task     36 has      15628 integration points.
  Task     37 has      15609 integration points.
  Task     38 has      15701 integration points.
  Task     39 has      15501 integration points.
  Task     40 has      15580 integration points.
  Task     41 has      15546 integration points.
  Task     42 has      15678 integration points.
  Task     43 has      15681 integration points.
  Task     44 has      15573 integration points.
  Task     45 has      15693 integration points.
  Task     46 has      15616 integration points.
  Task     47 has      15640 integration points.
  Task     48 has      15509 integration points.
  Task     49 has      15690 integration points.
  Task     50 has      15745 integration points.
  Task     51 has      15466 integration points.
  Task     52 has      15706 integration points.
  Task     53 has      15566 integration points.
  Task     54 has      15558 integration points.
  Task     55 has      15521 integration points.
  Initializing partition tables, free-atom densities, potentials, etc. across the integration grid (initialize_grid_storage).
  | initialize_grid_storage: Actual outermost partition radius vs. multipole_radius_free
  | (-- VB: in principle, multipole_radius_free should be larger, hence this output)
  | Species        1: Confinement radius =              6.000000000000000 AA, multipole_radius_free =              6.071692442739658 AA.
  | Species        1: outer_partition_radius set to              6.071692442739658 AA .
  | Species        2: Confinement radius =              6.000000000000000 AA, multipole_radius_free =              6.029870734432609 AA.
  | Species        2: outer_partition_radius set to              6.029870734432609 AA .
  | The sparse table of interatomic distances needs     32.0360 kbyte instead of    21.6320 kbyte of memory.
  | Using the partition_type stratmann_smoother will reduce your memory usage.
  | Net number of integration points:   874752
  | of which are non-zero points    :   694683
  Renormalizing the initial density to the exact electron count on the 3D integration grid.
  | Initial density: Formal number of electrons (from input files) :     222.0000000000
  | Integrated number of electrons on 3D grid     :     222.0001689140
  | Charge integration error                      :       0.0001689140
  | Normalization factor for density and gradient :       0.9999992391
  Obtaining max. number of non-zero basis functions in each batch (get_n_compute_maxes).
  | Maximal number of non-zero basis functions:     1032
  Selecting the method for density update.
  Loop over occupied states selected for charge density update.
  Hamiltonian matrix size:
  | Size of matrix non-packed:               1274406
  | Size of matrix packed:         1095972
  Allocating        3.064 MB for KS_eigenvector
  use_local_index: Max. local matrix size =       866350
  Task:     0 matrix size:     180300
  Task:     1 matrix size:     142311
  Task:     2 matrix size:     308063
  Task:     3 matrix size:     447398
  Task:     4 matrix size:     441395
  Task:     5 matrix size:     692051
  Task:     6 matrix size:     630503
  Task:     7 matrix size:     136502
  Task:     8 matrix size:     195609
  Task:     9 matrix size:     314377
  Task:    10 matrix size:     146611
  Task:    11 matrix size:     235028
  Task:    12 matrix size:     628607
  Task:    13 matrix size:     570024
  Task:    14 matrix size:     448161
  Task:    15 matrix size:     385350
  Task:    16 matrix size:     230548
  Task:    17 matrix size:     851666
  Task:    18 matrix size:     866350
  Task:    19 matrix size:     581868
  Task:    20 matrix size:     566442
  Task:    21 matrix size:     376630
  Task:    22 matrix size:     346475
  Task:    23 matrix size:     235084
  Task:    24 matrix size:     830456
  Task:    25 matrix size:     821887
  Task:    26 matrix size:     577129
  Task:    27 matrix size:     520491
  Task:    28 matrix size:     379298
  Task:    29 matrix size:     767502
  Task:    30 matrix size:     836256
  Task:    31 matrix size:     287004
  Task:    32 matrix size:     207369
  Task:    33 matrix size:     395783
  Task:    34 matrix size:     233922
  Task:    35 matrix size:     349008
  Task:    36 matrix size:     831586
  Task:    37 matrix size:     851411
  Task:    38 matrix size:     504861
  Task:    39 matrix size:     397626
  Task:    40 matrix size:     655475
  Task:    41 matrix size:     445959
  Task:    42 matrix size:     630927
  Task:    43 matrix size:     518414
  Task:    44 matrix size:     334629
  Task:    45 matrix size:     241793
  Task:    46 matrix size:     288021
  Task:    47 matrix size:     205761
  Task:    48 matrix size:     126756
  Task:    49 matrix size:     625249
  Task:    50 matrix size:     392121
  Task:    51 matrix size:     213175
  Task:    52 matrix size:     484527
  Task:    53 matrix size:     196203
  Task:    54 matrix size:     314655
  Task:    55 matrix size:     141245
  Integrating Hamiltonian matrix: batch-based integration.
  Time summed over all CPUs for integration: real work      167.168 s, elapsed      329.618 s
  Time get_set_sparse_local_matrix_scalapack:     0.016508 s
  Start compute_balanced_batch_distribution
  Done load balancing, time needed:      0.009 s
  Integrating overlap matrix with loadbalancing
  Time summed over all CPUs for integration: real work       47.249 s, elapsed       56.593 s
  Time get_set_full_local_matrix_scalapack:     0.018687 s

  Updating Kohn-Sham eigenvalues and eigenvectors using ELSI and the ELPA eigensolver.
  Overlap matrix is not singular
  | Lowest and highest eigenvalues :  0.12E+02,  0.85E-04
  Finished singularity check of overlap matrix
  | Time :     0.100 s
  Finished Cholesky decomposition
  | Time :     0.022 s
  Finished transformation to standard eigenproblem
  | Time :     0.017 s
  Starting ELPA eigensolver
  Finished solving standard eigenproblem
  | Time :     0.106 s
  Finished back-transformation of eigenvectors
  | Time :     0.004 s

  Obtaining occupation numbers and chemical potential using ELSI.
  | Chemical potential (Fermi level):    -7.92885734 eV
  Writing Kohn-Sham eigenvalues.

  State    Occupation    Eigenvalue [Ha]    Eigenvalue [eV]
      1       2.00000         -10.179081         -276.98689
      2       2.00000         -10.178510         -276.97136
      3       2.00000         -10.178302         -276.96568
      4       2.00000         -10.177755         -276.95081
      5       2.00000         -10.177562         -276.94556
      6       2.00000         -10.176321         -276.91178
      7       2.00000         -10.176086         -276.90539
      8       2.00000         -10.175985         -276.90265
      9       2.00000         -10.175945         -276.90156
     10       2.00000         -10.175521         -276.89002
     11       2.00000         -10.175342         -276.88515
     12       2.00000         -10.174738         -276.86870
     13       2.00000         -10.174177         -276.85345
     14       2.00000         -10.173479         -276.83446
     15       2.00000         -10.172888         -276.81836
     16       2.00000         -10.172860         -276.81760
     17       2.00000         -10.172824         -276.81663
     18       2.00000         -10.172305         -276.80251
     19       2.00000         -10.168647         -276.70295
     20       2.00000         -10.168420         -276.69679
     21       2.00000         -10.166039         -276.63201
     22       2.00000         -10.165606         -276.62021
     23       2.00000         -10.165242         -276.61030
     24       2.00000         -10.165240         -276.61025
     25       2.00000         -10.165097         -276.60636
     26       2.00000         -10.164872         -276.60025
     27       2.00000         -10.164849         -276.59961
     28       2.00000         -10.164751         -276.59694
     29       2.00000         -10.164514         -276.59049
     30       2.00000         -10.163984         -276.57608
     31       2.00000         -10.163696         -276.56823
     32       2.00000         -10.162527         -276.53643
     33       2.00000         -10.161159         -276.49920
     34       2.00000         -10.160299         -276.47579
     35       2.00000          -1.027230          -27.95236
     36       2.00000          -1.019020          -27.72895
     37       2.00000          -1.004219          -27.32620
     38       2.00000          -0.994090          -27.05056
     39       2.00000          -0.974868          -26.52750
     40       2.00000          -0.970995          -26.42211
     41       2.00000          -0.950126          -25.85424
     42       2.00000          -0.947221          -25.77519
     43       2.00000          -0.928953          -25.27809
     44       2.00000          -0.894737          -24.34702
     45       2.00000          -0.891684          -24.26395
     46       2.00000          -0.888950          -24.18956
     47       2.00000          -0.884233          -24.06122
     48       2.00000          -0.883539          -24.04232
     49       2.00000          -0.874419          -23.79416
     50       2.00000          -0.859678          -23.39303
     51       2.00000          -0.835628          -22.73860
     52       2.00000          -0.799265          -21.74910
     53       2.00000          -0.788290          -21.45046
     54       2.00000          -0.777454          -21.15559
     55       2.00000          -0.773251          -21.04123
     56       2.00000          -0.767152          -20.87527
     57       2.00000          -0.764473          -20.80236
     58       2.00000          -0.751973          -20.46223
     59       2.00000          -0.746921          -20.32474
     60       2.00000          -0.717105          -19.51342
     61       2.00000          -0.694486          -18.89792
     62       2.00000          -0.688186          -18.72650
     63       2.00000          -0.684956          -18.63861
     64       2.00000          -0.683050          -18.58672
     65       2.00000          -0.661670          -18.00495
     66       2.00000          -0.660552          -17.97454
     67       2.00000          -0.656577          -17.86638
     68       2.00000          -0.647129          -17.60927
     69       2.00000          -0.637392          -17.34431
     70       2.00000          -0.630289          -17.15105
     71       2.00000          -0.619800          -16.86562
     72       2.00000          -0.619664          -16.86191
     73       2.00000          -0.610368          -16.60896
     74       2.00000          -0.600824          -16.34924
     75       2.00000          -0.599994          -16.32666
     76       2.00000          -0.595517          -16.20484
     77       2.00000          -0.588904          -16.02490
     78       2.00000          -0.584101          -15.89420
     79       2.00000          -0.579581          -15.77121
     80       2.00000          -0.575869          -15.67018
     81       2.00000          -0.571337          -15.54686
     82       2.00000          -0.564227          -15.35341
     83       2.00000          -0.549878          -14.96293
     84       2.00000          -0.544342          -14.81230
     85       2.00000          -0.540698          -14.71314
     86       2.00000          -0.535303          -14.56634
     87       2.00000          -0.530713          -14.44143
     88       2.00000          -0.529246          -14.40151
     89       2.00000          -0.525151          -14.29008
     90       2.00000          -0.520099          -14.15263
     91       2.00000          -0.515482          -14.02697
     92       2.00000          -0.513847          -13.98249
     93       2.00000          -0.512880          -13.95617
     94       2.00000          -0.502325          -13.66897
     95       2.00000          -0.498042          -13.55243
     96       2.00000          -0.493305          -13.42352
     97       2.00000          -0.489778          -13.32754
     98       2.00000          -0.482798          -13.13760
     99       2.00000          -0.477142          -12.98369
    100       2.00000          -0.475570          -12.94093
    101       2.00000          -0.462028          -12.57243
    102       2.00000          -0.449358          -12.22765
    103       2.00000          -0.442358          -12.03718
    104       2.00000          -0.404131          -10.99697
    105       2.00000          -0.401596          -10.92799
    106       2.00000          -0.399917          -10.88230
    107       2.00000          -0.399280          -10.86496
    108       2.00000          -0.398724          -10.84985
    109       2.00000          -0.392122          -10.67019
    110       2.00000          -0.369698          -10.06000
    111       2.00000          -0.332452           -9.04647
    112       0.00000          -0.283651           -7.71853
    113       0.00000          -0.249755           -6.79617
    114       0.00000          -0.223061           -6.06981
    115       0.00000          -0.217056           -5.90640
    116       0.00000          -0.214883           -5.84726
    117       0.00000          -0.212796           -5.79047
    118       0.00000          -0.209722           -5.70682
    119       0.00000          -0.205821           -5.60069
    120       0.00000          -0.162340           -4.41750
    121       0.00000          -0.152731           -4.15602
    122       0.00000          -0.134858           -3.66969
    123       0.00000          -0.118132           -3.21453
    124       0.00000          -0.103096           -2.80539
    125       0.00000          -0.075320           -2.04957
    126       0.00000          -0.070678           -1.92323
    127       0.00000          -0.064683           -1.76011
    128       0.00000          -0.064110           -1.74452
    129       0.00000          -0.059605           -1.62193
    130       0.00000          -0.058889           -1.60245
    131       0.00000          -0.058274           -1.58571
    132       0.00000          -0.046519           -1.26583
    133       0.00000          -0.040487           -1.10170
    134       0.00000          -0.035006           -0.95257
    135       0.00000          -0.030588           -0.83236
    136       0.00000          -0.028795           -0.78355
    137       0.00000          -0.021649           -0.58911
    138       0.00000          -0.015689           -0.42692
    139       0.00000          -0.012064           -0.32828
    140       0.00000          -0.009920           -0.26994
    141       0.00000          -0.007753           -0.21097
    142       0.00000          -0.006018           -0.16376
    143       0.00000          -0.002367           -0.06440
    144       0.00000          -0.001025           -0.02790
    145       0.00000           0.000647            0.01760
    146       0.00000           0.008048            0.21898
    147       0.00000           0.010130            0.27564
    148       0.00000           0.011805            0.32123
    149       0.00000           0.014328            0.38990
    150       0.00000           0.022631            0.61581
    151       0.00000           0.025062            0.68196
    152       0.00000           0.025501            0.69393
    153       0.00000           0.029515            0.80316
    154       0.00000           0.030790            0.83785
    155       0.00000           0.033390            0.90858
    156       0.00000           0.037880            1.03077
    157       0.00000           0.039703            1.08037
    158       0.00000           0.043988            1.19697
    159       0.00000           0.046594            1.26788
    160       0.00000           0.050082            1.36281
    161       0.00000           0.053196            1.44754
    162       0.00000           0.053522            1.45642
    163       0.00000           0.056971            1.55025
    164       0.00000           0.058110            1.58125
    165       0.00000           0.059874            1.62927
    166       0.00000           0.062483            1.70024
    167       0.00000           0.070172            1.90949
    168       0.00000           0.071014            1.93238
    169       0.00000           0.073553            2.00148
    170       0.00000           0.075548            2.05577
    171       0.00000           0.076179            2.07292
    172       0.00000           0.079330            2.15868
    173       0.00000           0.079873            2.17345
    174       0.00000           0.084628            2.30284
    175       0.00000           0.091176            2.48101
    176       0.00000           0.094251            2.56469
    177       0.00000           0.096163            2.61673
    178       0.00000           0.098036            2.66769
    179       0.00000           0.100675            2.73952
    180       0.00000           0.101243            2.75496
    181       0.00000           0.102297            2.78365
    182       0.00000           0.104534            2.84452
    183       0.00000           0.110645            3.01080
    184       0.00000           0.111091            3.02294
    185       0.00000           0.114034            3.10302
    186       0.00000           0.115994            3.15636
    187       0.00000           0.122085            3.32211
    188       0.00000           0.122194            3.32506
    189       0.00000           0.123265            3.35421
    190       0.00000           0.133183            3.62410
    191       0.00000           0.134663            3.66438
    192       0.00000           0.137354            3.73759
    193       0.00000           0.140459            3.82209
    194       0.00000           0.143607            3.90774
    195       0.00000           0.145042            3.94680
    196       0.00000           0.147175            4.00485
    197       0.00000           0.150020            4.08225
    198       0.00000           0.151365            4.11886
    199       0.00000           0.153600            4.17966
    200       0.00000           0.157940            4.29776
    201       0.00000           0.160216            4.35969
    202       0.00000           0.162974            4.43473
    203       0.00000           0.167074            4.54631
    204       0.00000           0.167521            4.55849
    205       0.00000           0.169215            4.60458
    206       0.00000           0.171744            4.67340
    207       0.00000           0.173850            4.73071
    208       0.00000           0.175455            4.77437
    209       0.00000           0.181019            4.92578
    210       0.00000           0.182809            4.97450
    211       0.00000           0.185214            5.03992
    212       0.00000           0.189776            5.16407
    213       0.00000           0.191256            5.20433
    214       0.00000           0.192226            5.23074
    215       0.00000           0.197866            5.38420
    216       0.00000           0.202204            5.50226
    217       0.00000           0.203340            5.53315
    218       0.00000           0.205365            5.58827
    219       0.00000           0.206368            5.61555
    220       0.00000           0.209813            5.70929
    221       0.00000           0.213359            5.80579
    222       0.00000           0.217515            5.91888
    223       0.00000           0.219756            5.97988
    224       0.00000           0.223195            6.07344
    225       0.00000           0.227871            6.20069
    226       0.00000           0.232682            6.33160
    227       0.00000           0.234403            6.37843
    228       0.00000           0.240179            6.53561
    229       0.00000           0.240509            6.54457
    230       0.00000           0.244543            6.65436
    231       0.00000           0.249918            6.80061
    232       0.00000           0.251186            6.83512
    233       0.00000           0.254298            6.91979
    234       0.00000           0.257755            7.01388
    235       0.00000           0.258480            7.03361
    236       0.00000           0.261000            7.10218
    237       0.00000           0.265808            7.23301
    238       0.00000           0.271462            7.38687
    239       0.00000           0.277466            7.55024
    240       0.00000           0.280636            7.63648

  Highest occupied state (VBM) at     -9.04647171 eV
  | Occupation number:      2.00000000

  Lowest unoccupied state (CBM) at    -7.71852617 eV
  | Occupation number:      0.00000000

  Overall HOMO-LUMO gap:      1.32794554 eV.
  Calculating total energy contributions from superposition of free atom densities.

  Total energy components:
  | Sum of eigenvalues            :        -791.90566672 Ha      -21548.84958474 eV
  | XC energy correction          :        -186.88932312 Ha       -5085.51723031 eV
  | XC potential correction       :         240.06789020 Ha        6532.57966625 eV
  | Free-atom electrostatic energy:        -568.80997525 Ha      -15478.10694385 eV
  | Hartree energy correction     :           0.00000000 Ha           0.00000000 eV
  | Entropy correction            :           0.00000000 Ha           0.00000000 eV
  | ---------------------------
  | Total energy                  :       -1307.53707488 Ha      -35579.89409265 eV
  | Total energy, T -> 0          :       -1307.53707488 Ha      -35579.89409265 eV  <-- do not rely on this value for anything but (periodic) metals
  | Electronic free energy        :       -1307.53707488 Ha      -35579.89409265 eV

  Derived energy quantities:
  | Kinetic energy                :        1296.42860223 Ha       35277.61717208 eV
  | Electrostatic energy          :       -2417.07635400 Ha      -65771.99403442 eV
  | Energy correction for multipole
  | error in Hartree potential    :           0.00000000 Ha           0.00000000 eV
  | Sum of eigenvalues per atom                           :        -414.40095355 eV
  | Total energy (T->0) per atom                          :        -684.22873255 eV  <-- do not rely on this value for anything but (periodic) metals
  | Electronic free energy per atom                       :        -684.22873255 eV
  Initialize hartree_potential_storage
  Max. number of atoms included in rho_multipole:           52

  End scf initialization - timings             :  max(cpu_time)    wall_clock(cpu1)
  | Time for scf. initialization               :        8.956 s           9.016 s
  | Boundary condition initialization          :        0.001 s           0.004 s
  | Integration                                :        6.961 s           6.965 s
  | Solution of K.-S. eqns.                    :        0.271 s           0.288 s
  | Grid partitioning                          :        0.764 s           0.768 s
  | Preloading free-atom quantities on grid    :        0.013 s           0.017 s
  | Free-atom superposition energy             :        0.072 s           0.072 s
  | Total energy evaluation                    :        0.001 s           0.005 s

  Partial memory accounting:
  | Current value for overall tracked memory usage on task 0  :           4.984 MB
  | Peak value for overall tracked memory usage on task 0     :          29.758 MB after allocating zora_vector2
  | Largest tracked array allocation on task 0 so far         :           8.520 MB  when allocating hamiltonian_shell
  Note:  These values currently only include a subset of arrays which are explicitly tracked.
  The "true" memory usage will be greater.
------------------------------------------------------------

------------------------------------------------------------
          Begin self-consistency iteration #    1

  Date     :  20210620, Time     :  173157.218
------------------------------------------------------------
  Evaluating new KS density.
  Integration grid: deviation in total charge (<rho> - N_e) =   1.136868E-13
  Pulay mixing of updated and previous charge densities.

  Evaluating partitioned Hartree potential by multipole expansion.
  | Analytical far-field extrapolation by fixed multipoles:
  | Hartree multipole sum: apparent total charge =   0.158990E-03
  Summing up the Hartree potential with load balancing.
  Time summed over all CPUs for potential: real work       28.799 s, elapsed       45.894 s
  | RMS charge density error from multipole expansion :   0.142794E-01

  Start compute_balanced_batch_distribution
  Done load balancing, time needed:      0.007 s
  Integrating Hamiltonian matrix: batch-based integration with load balancing
  Time summed over all CPUs for integration: real work      183.494 s, elapsed      211.132 s
  Time get_set_full_local_matrix_scalapack:     0.018776 s
  Start compute_balanced_batch_distribution
  Done load balancing, time needed:      0.008 s

  Updating Kohn-Sham eigenvalues and eigenvectors using ELSI and the ELPA eigensolver.
  Finished transformation to standard eigenproblem
  | Time :     0.018 s
  Starting ELPA eigensolver
  Finished solving standard eigenproblem
  | Time :     0.106 s
  Finished back-transformation of eigenvectors
  | Time :     0.004 s

  Obtaining occupation numbers and chemical potential using ELSI.
  | Chemical potential (Fermi level):    -4.61651718 eV
  Writing Kohn-Sham eigenvalues.

  State    Occupation    Eigenvalue [Ha]    Eigenvalue [eV]
      1       2.00000          -9.998546         -272.07429
      2       2.00000          -9.996008         -272.00523
      3       2.00000          -9.990005         -271.84187
      4       2.00000          -9.987746         -271.78040
      5       2.00000          -9.987390         -271.77072
      6       2.00000          -9.986874         -271.75667
      7       2.00000          -9.986117         -271.73606
      8       2.00000          -9.985512         -271.71961
      9       2.00000          -9.985162         -271.71008
     10       2.00000          -9.983148         -271.65528
     11       2.00000          -9.983073         -271.65324
     12       2.00000          -9.981765         -271.61764
     13       2.00000          -9.978077         -271.51730
     14       2.00000          -9.977135         -271.49165
     15       2.00000          -9.968720         -271.26267
     16       2.00000          -9.967897         -271.24027
     17       2.00000          -9.951097         -270.78313
     18       2.00000          -9.950965         -270.77953
     19       2.00000          -9.950765         -270.77409
     20       2.00000          -9.950427         -270.76488
     21       2.00000          -9.949289         -270.73393
     22       2.00000          -9.948163         -270.70330
     23       2.00000          -9.947820         -270.69394
     24       2.00000          -9.947406         -270.68268
     25       2.00000          -9.946556         -270.65956
     26       2.00000          -9.945097         -270.61986
     27       2.00000          -9.945011         -270.61751
     28       2.00000          -9.944551         -270.60499
     29       2.00000          -9.944390         -270.60062
     30       2.00000          -9.943726         -270.58256
     31       2.00000          -9.942825         -270.55805
     32       2.00000          -9.942522         -270.54979
     33       2.00000          -9.942473         -270.54845
     34       2.00000          -9.942037         -270.53658
     35       2.00000          -0.890013          -24.21849
     36       2.00000          -0.873207          -23.76117
     37       2.00000          -0.855098          -23.26840
     38       2.00000          -0.845402          -23.00455
     39       2.00000          -0.823892          -22.41925
     40       2.00000          -0.818530          -22.27333
     41       2.00000          -0.805908          -21.92989
     42       2.00000          -0.797379          -21.69778
     43       2.00000          -0.784235          -21.34011
     44       2.00000          -0.749292          -20.38927
     45       2.00000          -0.747563          -20.34223
     46       2.00000          -0.745116          -20.27564
     47       2.00000          -0.737342          -20.06411
     48       2.00000          -0.734968          -19.99950
     49       2.00000          -0.729271          -19.84447
     50       2.00000          -0.709226          -19.29901
     51       2.00000          -0.688230          -18.72770
     52       2.00000          -0.660299          -17.96765
     53       2.00000          -0.646958          -17.60462
     54       2.00000          -0.637175          -17.33843
     55       2.00000          -0.635429          -17.29089
     56       2.00000          -0.623202          -16.95819
     57       2.00000          -0.621758          -16.91890
     58       2.00000          -0.612597          -16.66961
     59       2.00000          -0.602573          -16.39684
     60       2.00000          -0.577477          -15.71395
     61       2.00000          -0.560467          -15.25109
     62       2.00000          -0.548864          -14.93535
     63       2.00000          -0.548486          -14.92507
     64       2.00000          -0.545428          -14.84184
     65       2.00000          -0.528095          -14.37019
     66       2.00000          -0.517521          -14.08248
     67       2.00000          -0.514754          -14.00717
     68       2.00000          -0.513105          -13.96229
     69       2.00000          -0.501403          -13.64386
     70       2.00000          -0.492432          -13.39975
     71       2.00000          -0.483884          -13.16715
     72       2.00000          -0.479020          -13.03480
     73       2.00000          -0.475212          -12.93116
     74       2.00000          -0.464483          -12.63921
     75       2.00000          -0.457796          -12.45727
     76       2.00000          -0.452254          -12.30645
     77       2.00000          -0.447584          -12.17939
     78       2.00000          -0.445837          -12.13184
     79       2.00000          -0.440658          -11.99091
     80       2.00000          -0.438270          -11.92592
     81       2.00000          -0.432856          -11.77862
     82       2.00000          -0.427932          -11.64463
     83       2.00000          -0.425001          -11.56487
     84       2.00000          -0.421025          -11.45668
     85       2.00000          -0.414350          -11.27503
     86       2.00000          -0.413578          -11.25402
     87       2.00000          -0.400664          -10.90263
     88       2.00000          -0.397147          -10.80692
     89       2.00000          -0.395040          -10.74957
     90       2.00000          -0.393808          -10.71607
     91       2.00000          -0.385915          -10.50128
     92       2.00000          -0.383996          -10.44907
     93       2.00000          -0.377916          -10.28361
     94       2.00000          -0.373372          -10.15998
     95       2.00000          -0.360682           -9.81464
     96       2.00000          -0.359595           -9.78508
     97       2.00000          -0.356246           -9.69396
     98       2.00000          -0.349690           -9.51555
     99       2.00000          -0.349445           -9.50889
    100       2.00000          -0.342050           -9.30766
    101       2.00000          -0.341262           -9.28622
    102       2.00000          -0.322154           -8.76627
    103       2.00000          -0.319436           -8.69231
    104       2.00000          -0.280805           -7.64110
    105       2.00000          -0.279341           -7.60126
    106       2.00000          -0.278660           -7.58274
    107       2.00000          -0.275395           -7.49389
    108       2.00000          -0.271897           -7.39869
    109       2.00000          -0.269826           -7.34234
    110       2.00000          -0.243346           -6.62178
    111       2.00000          -0.207963           -5.65897
    112       0.00000          -0.162725           -4.42798
    113       0.00000          -0.127714           -3.47529
    114       0.00000          -0.103299           -2.81092
    115       0.00000          -0.096837           -2.63507
    116       0.00000          -0.093130           -2.53420
    117       0.00000          -0.092293           -2.51142
    118       0.00000          -0.085000           -2.31296
    119       0.00000          -0.084044           -2.28696
    120       0.00000          -0.040880           -1.11240
    121       0.00000          -0.030635           -0.83361
    122       0.00000          -0.030304           -0.82461
    123       0.00000          -0.025661           -0.69828
    124       0.00000          -0.022833           -0.62131
    125       0.00000          -0.015822           -0.43055
    126       0.00000          -0.014903           -0.40553
    127       0.00000          -0.013618           -0.37056
    128       0.00000          -0.002377           -0.06468
    129       0.00000          -0.000475           -0.01292
    130       0.00000           0.002213            0.06023
    131       0.00000           0.013374            0.36392
    132       0.00000           0.014625            0.39798
    133       0.00000           0.018619            0.50666
    134       0.00000           0.024948            0.67888
    135       0.00000           0.027693            0.75358
    136       0.00000           0.033494            0.91143
    137       0.00000           0.034450            0.93742
    138       0.00000           0.037980            1.03350
    139       0.00000           0.054466            1.48210
    140       0.00000           0.055676            1.51502
    141       0.00000           0.059600            1.62180
    142       0.00000           0.062478            1.70012
    143       0.00000           0.063542            1.72907
    144       0.00000           0.064841            1.76440
    145       0.00000           0.072195            1.96453
    146       0.00000           0.079442            2.16171
    147       0.00000           0.084383            2.29617
    148       0.00000           0.084848            2.30884
    149       0.00000           0.090913            2.47387
    150       0.00000           0.091496            2.48974
    151       0.00000           0.097148            2.64353
    152       0.00000           0.104467            2.84269
    153       0.00000           0.104732            2.84991
    154       0.00000           0.108131            2.94238
    155       0.00000           0.109701            2.98513
    156       0.00000           0.113102            3.07766
    157       0.00000           0.114055            3.10359
    158       0.00000           0.117866            3.20730
    159       0.00000           0.120895            3.28973
    160       0.00000           0.127144            3.45976
    161       0.00000           0.127857            3.47915
    162       0.00000           0.129402            3.52121
    163       0.00000           0.134315            3.65491
    164       0.00000           0.134875            3.67015
    165       0.00000           0.135945            3.69926
    166       0.00000           0.140295            3.81762
    167       0.00000           0.140705            3.82877
    168       0.00000           0.145814            3.96781
    169       0.00000           0.147623            4.01702
    170       0.00000           0.149215            4.06036
    171       0.00000           0.149891            4.07873
    172       0.00000           0.156305            4.25328
    173       0.00000           0.157999            4.29938
    174       0.00000           0.159522            4.34082
    175       0.00000           0.160977            4.38041
    176       0.00000           0.161508            4.39486
    177       0.00000           0.162613            4.42494
    178       0.00000           0.168643            4.58901
    179       0.00000           0.169936            4.62421
    180       0.00000           0.172972            4.70680
    181       0.00000           0.174196            4.74011
    182       0.00000           0.180933            4.92343
    183       0.00000           0.184320            5.01561
    184       0.00000           0.185004            5.03421
    185       0.00000           0.188564            5.13109
    186       0.00000           0.191121            5.20067
    187       0.00000           0.192578            5.24030
    188       0.00000           0.196735            5.35343
    189       0.00000           0.200827            5.46477
    190       0.00000           0.205310            5.58676
    191       0.00000           0.205745            5.59860
    192       0.00000           0.205937            5.60384
    193       0.00000           0.209672            5.70547
    194       0.00000           0.214452            5.83555
    195       0.00000           0.218078            5.93420
    196       0.00000           0.218663            5.95012
    197       0.00000           0.223060            6.06978
    198       0.00000           0.224680            6.11386
    199       0.00000           0.225647            6.14016
[...]
     70       2.00000          -0.429593          -11.68983
     71       2.00000          -0.421020          -11.45654
     72       2.00000          -0.418055          -11.37584
     73       2.00000          -0.411627          -11.20095
     74       2.00000          -0.401112          -10.91481
     75       2.00000          -0.398613          -10.84681
     76       2.00000          -0.392005          -10.66700
     77       2.00000          -0.388542          -10.57276
     78       2.00000          -0.382564          -10.41009
     79       2.00000          -0.380724          -10.36003
     80       2.00000          -0.377010          -10.25897
     81       2.00000          -0.374273          -10.18448
     82       2.00000          -0.373140          -10.15365
     83       2.00000          -0.363057           -9.87929
     84       2.00000          -0.359833           -9.79154
     85       2.00000          -0.358882           -9.76566
     86       2.00000          -0.355133           -9.66365
     87       2.00000          -0.347635           -9.45963
     88       2.00000          -0.340530           -9.26631
     89       2.00000          -0.335426           -9.12741
     90       2.00000          -0.335179           -9.12068
     91       2.00000          -0.331265           -9.01417
     92       2.00000          -0.322473           -8.77494
     93       2.00000          -0.316126           -8.60223
     94       2.00000          -0.315487           -8.58483
     95       2.00000          -0.312648           -8.50759
     96       2.00000          -0.305634           -8.31672
     97       2.00000          -0.299170           -8.14082
     98       2.00000          -0.295271           -8.03474
     99       2.00000          -0.291115           -7.92164
    100       2.00000          -0.289360           -7.87389
    101       2.00000          -0.284198           -7.73342
    102       2.00000          -0.274103           -7.45873
    103       2.00000          -0.267257           -7.27242
    104       2.00000          -0.235506           -6.40846
    105       2.00000          -0.233775           -6.36135
    106       2.00000          -0.233312           -6.34873
    107       2.00000          -0.231925           -6.31099
    108       2.00000          -0.230548           -6.27354
    109       2.00000          -0.225944           -6.14824
    110       2.00000          -0.198994           -5.41490
    111       2.00000          -0.161572           -4.39659
    112       0.00000          -0.116794           -3.17813
    113       0.00000          -0.083421           -2.26999
    114       0.00000          -0.058755           -1.59880
    115       0.00000          -0.050733           -1.38052
    116       0.00000          -0.049438           -1.34527
    117       0.00000          -0.047181           -1.28386
    118       0.00000          -0.039541           -1.07595
    119       0.00000          -0.038874           -1.05780
    120       0.00000          -0.007897           -0.21488
    121       0.00000          -0.002950           -0.08028
    122       0.00000          -0.001528           -0.04157
    123       0.00000           0.003784            0.10296
    124       0.00000           0.006702            0.18238
    125       0.00000           0.008073            0.21967
    126       0.00000           0.014913            0.40580
    127       0.00000           0.019688            0.53573
    128       0.00000           0.021720            0.59103
    129       0.00000           0.027684            0.75331
    130       0.00000           0.033019            0.89848
    131       0.00000           0.037828            1.02936
    132       0.00000           0.043574            1.18570
    133       0.00000           0.044546            1.21215
    134       0.00000           0.053302            1.45042
    135       0.00000           0.053373            1.45235
    136       0.00000           0.054291            1.47733
    137       0.00000           0.060136            1.63637
    138       0.00000           0.068483            1.86353
    139       0.00000           0.077666            2.11341
    140       0.00000           0.079480            2.16275
    141       0.00000           0.083961            2.28470
    142       0.00000           0.086069            2.34207
    143       0.00000           0.092686            2.52212
    144       0.00000           0.099858            2.71726
    145       0.00000           0.102715            2.79501
    146       0.00000           0.107600            2.92795
    147       0.00000           0.109498            2.97960
    148       0.00000           0.115580            3.14509
    149       0.00000           0.117732            3.20365
    150       0.00000           0.119449            3.25037
    151       0.00000           0.125345            3.41081
    152       0.00000           0.129486            3.52350
    153       0.00000           0.133798            3.64082
    154       0.00000           0.134313            3.65485
    155       0.00000           0.137496            3.74144
    156       0.00000           0.147528            4.01444
    157       0.00000           0.150900            4.10619
    158       0.00000           0.154968            4.21691
    159       0.00000           0.155808            4.23976
    160       0.00000           0.161882            4.40502
    161       0.00000           0.162204            4.41379
    162       0.00000           0.163957            4.46150
    163       0.00000           0.164844            4.48562
    164       0.00000           0.168596            4.58774
    165       0.00000           0.171300            4.66131
    166       0.00000           0.174066            4.73658
    167       0.00000           0.174655            4.75259
    168       0.00000           0.178003            4.84370
    169       0.00000           0.180882            4.92206
    170       0.00000           0.182631            4.96963
    171       0.00000           0.189085            5.14526
    172       0.00000           0.190244            5.17682
    173       0.00000           0.191496            5.21087
    174       0.00000           0.192789            5.24606
    175       0.00000           0.195962            5.33239
    176       0.00000           0.197024            5.36130
    177       0.00000           0.198266            5.39510
    178       0.00000           0.204133            5.55474
    179       0.00000           0.205341            5.58762
    180       0.00000           0.209113            5.69026
    181       0.00000           0.210349            5.72388
    182       0.00000           0.213275            5.80350
    183       0.00000           0.218893            5.95638
    184       0.00000           0.219910            5.98405
    185       0.00000           0.221278            6.02127
    186       0.00000           0.225074            6.12457
    187       0.00000           0.226282            6.15745
    188       0.00000           0.227003            6.17707
    189       0.00000           0.234789            6.38892
    190       0.00000           0.235668            6.41285
    191       0.00000           0.238810            6.49836
    192       0.00000           0.241869            6.58158
    193       0.00000           0.244511            6.65348
    194       0.00000           0.250036            6.80381
    195       0.00000           0.252072            6.85922
    196       0.00000           0.253690            6.90324
    197       0.00000           0.255420            6.95034
    198       0.00000           0.256888            6.99027
    199       0.00000           0.259887            7.07188
    200       0.00000           0.261361            7.11201
    201       0.00000           0.263959            7.18269
    202       0.00000           0.265773            7.23205
    203       0.00000           0.268983            7.31939
    204       0.00000           0.272531            7.41594
    205       0.00000           0.273550            7.44368
    206       0.00000           0.279433            7.60377
    207       0.00000           0.282664            7.69167
    208       0.00000           0.285251            7.76208
    209       0.00000           0.287816            7.83187
    210       0.00000           0.288900            7.86138
    211       0.00000           0.290774            7.91237
    212       0.00000           0.291506            7.93227
    213       0.00000           0.294382            8.01054
    214       0.00000           0.298824            8.13141
    215       0.00000           0.299883            8.16023
    216       0.00000           0.302955            8.24383
    217       0.00000           0.311874            8.48653
    218       0.00000           0.317232            8.63232
    219       0.00000           0.321203            8.74038
    220       0.00000           0.324369            8.82652
    221       0.00000           0.324781            8.83774
    222       0.00000           0.325851            8.86685
    223       0.00000           0.333251            9.06823
    224       0.00000           0.338363            9.20733
    225       0.00000           0.341814            9.30123
    226       0.00000           0.343318            9.34215
    227       0.00000           0.346488            9.42843
    228       0.00000           0.350822            9.54634
    229       0.00000           0.351972            9.57764
    230       0.00000           0.356427            9.69887
    231       0.00000           0.357072            9.71641
    232       0.00000           0.361120            9.82656
    233       0.00000           0.363249            9.88450
    234       0.00000           0.368966           10.04007
    235       0.00000           0.370366           10.07818
    236       0.00000           0.374447           10.18921
    237       0.00000           0.375599           10.22056
    238       0.00000           0.380647           10.35792
    239       0.00000           0.384379           10.45947
    240       0.00000           0.392200           10.67230

  Highest occupied state (VBM) at     -4.39659041 eV
  | Occupation number:      2.00000000

  Lowest unoccupied state (CBM) at    -3.17813255 eV
  | Occupation number:      0.00000000

  Overall HOMO-LUMO gap:      1.21845786 eV.

  Total energy components:
  | Sum of eigenvalues            :        -743.73142251 Ha      -20237.96170272 eV
  | XC energy correction          :        -190.23284367 Ha       -5176.49905353 eV
  | XC potential correction       :         244.38948744 Ha        6650.17631045 eV
  | Free-atom electrostatic energy:        -568.80997525 Ha      -15478.10694385 eV
  | Hartree energy correction     :         -47.58553596 Ha       -1294.86831561 eV
  | Entropy correction            :           0.00000000 Ha           0.00000000 eV
  | ---------------------------
  | Total energy                  :       -1305.97028994 Ha      -35537.25970526 eV
  | Total energy, T -> 0          :       -1305.97028994 Ha      -35537.25970526 eV  <-- do not rely on this value for anything but (periodic) metals
  | Electronic free energy        :       -1305.97028994 Ha      -35537.25970526 eV

  Derived energy quantities:
  | Kinetic energy                :        1303.16060409 Ha       35460.80426324 eV
  | Electrostatic energy          :       -2418.89805037 Ha      -65821.56491497 eV
  | Energy correction for multipole
  | error in Hartree potential    :          -0.16584766 Ha          -4.51294454 eV
  | Sum of eigenvalues per atom                           :        -389.19157121 eV
  | Total energy (T->0) per atom                          :        -683.40884049 eV  <-- do not rely on this value for anything but (periodic) metals
  | Electronic free energy per atom                       :        -683.40884049 eV
  End evaluation of scaled ZORA corrections.
  | Time for scaled ZORA corrections           :        6.392 s           6.393 s
------------------------------------------------------------

  Energy and forces in a compact form:
  | Total energy uncorrected      :         -0.355372597052602E+05 eV
  | Total energy corrected        :         -0.355372597052602E+05 eV  <-- do not rely on this value for anything but (periodic) metals
  | Electronic free energy        :         -0.355372597052602E+05 eV

  ------------------------------------ 
  Start decomposition of the XC Energy 
  ------------------------------------ 
  X and C from original XC functional choice 
  Hartree-Fock Energy :          0.000000000 Ha              0.000000000 eV
  X Energy            :       -182.739307316 Ha          -4972.589554642 eV
  C Energy            :         -7.493536350 Ha           -203.909498884 eV
  Total XC Energy     :       -190.232843666 Ha          -5176.499053527 eV
  ------------------------------------ 
  LDA X and C from self-consistent density 
  X Energy LDA        :       -165.567172643 Ha          -4505.311995360 eV
  C Energy LDA        :        -14.389820804 Ha           -391.566946790 eV
  ------------------------------------ 
  End decomposition of the XC Energy 
  ------------------------------------ 

------------------------------------------------------------

------------------------------------------------------------------------------
  Final output of selected total energy values:

  The following output summarizes some interesting total energy values
  at the end of a run (AFTER all relaxation, molecular dynamics, etc.).

  | Total energy of the DFT / Hartree-Fock s.c.f. calculation      :         -35537.259705260 eV
  | Final zero-broadening corrected energy (caution - metals only) :         -35537.259705260 eV
  | For reference only, the value of 1 Hartree used in FHI-aims is :             27.211384500 eV

  Before relying on these values, please be sure to understand exactly which
  total energy value is referred to by a given number. Different objects may
  all carry the same name 'total energy'. Definitions:

  Total energy of the DFT / Hartree-Fock s.c.f. calculation:
  | Note that this energy does not include ANY quantities calculated after the
  | s.c.f. cycle, in particular not ANY RPA, MP2, etc. many-body perturbation terms.
  | Scalar relativistic effects have been included in the 'scaled ZORA' approximation.

  Final zero-broadening corrected energy:
  | For metallic systems only, a broadening of the occupation numbers at the Fermi
  | level can be extrapolated back to zero broadening by an electron-gas inspired
  | formula. For all systems that are not real metals, this value can be
  | meaningless and should be avoided.

------------------------------------------------------------------------------
  Methods described in the following list of references were used in this FHI-aims run.
  If you publish the results, please make sure to cite these reference if they apply.
  FHI-aims is an academic code, and for our developers (often, Ph.D. students
  and postdocs), scientific credit in the community is essential.
  Thank you for helping us!

  For any use of FHI-aims, please cite:

    Volker Blum, Ralf Gehrke, Felix Hanke, Paula Havu, Ville Havu,
    Xinguo Ren, Karsten Reuter, and Matthias Scheffler
    'Ab initio molecular simulations with numeric atom-centered orbitals'
    Computer Physics Communications 180, 2175-2196 (2009)
    http://dx.doi.org/10.1016/j.cpc.2009.06.022


  The scalable eigensolver library ELPA was used in your run.
  ELPA is essential especially for large systems on hundreds or thousands of CPUs.
  For ELPA, please cite:

    Andreas Marek, Volker Blum, Rainer Johanni, Ville Havu, Bruno Lang,
    Thomas Auckenthaler, Alexander Heinecke, Hans-Joachim Bungartz, and Hermann Lederer,
    'The ELPA Library - Scalable Parallel Eigenvalue Solutions
    for Electronic Structure Theory and Computational Science'
    The Journal of Physics: Condensed Matter 26, 213201 (2014).
    http://dx.doi.org/10.1088/0953-8984/26/21/213201


  The ELSI infrastructure was used in your run to solve the Kohn-Sham electronic structure.
  Please check out http://elsi-interchange.org to learn more.
  If scalability is important for your project, please acknowledge ELSI by citing:

    V. W-z. Yu, F. Corsetti, A. Garcia, W. P. Huhn, M. Jacquelin, W. Jia,
    B. Lange, L. Lin, J. Lu, W. Mi, A. Seifitokaldani, A. Vazquez-Mayagoitia,
    C. Yang, H. Yang, and V. Blum
    'ELSI: A unified software interface for Kohn-Sham electronic structure solvers'
    Computer Physics Communications 222, 267-285 (2018).
    http://dx.doi.org/10.1016/j.cpc.2017.09.007


  For the real-space grid partitioning and parallelization used in this calculation, please cite:

    Ville Havu, Volker Blum, Paula Havu, and Matthias Scheffler,
    'Efficient O(N) integration for all-electron electronic structure calculation'
    'using numerically tabulated basis functions'
    Journal of Computational Physics 228, 8367-8379 (2009).
    http://dx.doi.org/10.1016/j.jcp.2009.08.008

  Of course, there are many other important community references, e.g., those cited in the
  above references. Our list is limited to references that describe implementations in the
  FHI-aims code. The reason is purely practical (length of this list) - please credit others as well.

------------------------------------------------------------
          Leaving FHI-aims.
          Date     :  20210620, Time     :  173348.697

          Computational steps:
          | Number of self-consistency cycles          :           18
          | Number of SCF (re)initializations          :            1

          Detailed time accounting                     :  max(cpu_time)    wall_clock(cpu1)
          | Total time                                 :      120.629 s         120.899 s
          | Preparation time                           :        0.196 s           0.180 s
          | Boundary condition initalization           :        0.001 s           0.004 s
          | Grid partitioning                          :        0.764 s           0.768 s
          | Preloading free-atom quantities on grid    :        0.013 s           0.017 s
          | Free-atom superposition energy             :        0.072 s           0.072 s
          | Total time for integrations                :       69.830 s          69.837 s
          | Total time for solution of K.-S. equations :        3.470 s           3.496 s
          | Total time for density update              :       27.461 s          27.389 s
          | Total time for mixing                      :        0.158 s           0.163 s
          | Total time for Hartree multipole update    :        0.174 s           0.180 s
          | Total time for Hartree multipole sum       :       10.969 s          10.971 s
          | Total time for total energy evaluation     :        0.007 s           0.039 s
          | Total time for scaled ZORA corrections     :        6.392 s           6.393 s

          Partial memory accounting:
          | Residual value for overall tracked memory usage across tasks :     0.000000 MB (should be 0.000000 MB)
          | Peak values for overall tracked memory usage (after allocating zora_vector2):
          |   Minimum:       29.229 MB (on task 49)
          |   Maximum:       37.934 MB (on task 19)
          |   Average:       33.343 MB
          | Largest tracked array allocation (hamiltonian_shell):
          |   Minimum:        8.520 MB (on task  1)
          |   Maximum:        8.520 MB (on task  1)
          |   Average:        8.520 MB
          Note:  These values currently only include a subset of arrays which are explicitly tracked.
          The "true" memory usage will be greater.

          Have a nice day.
------------------------------------------------------------
