  MPI-parallelism will be employed.
------------------------------------------------------------
          Invoking FHI-aims ...
          Version 180607
          Git rev. (modified): 6724847 Fix JSON memory corruption in scf_solver
          Compiled on 2018/06/27 at 16:00:31 on host coe.psc.edu.

          When using FHI-aims, please cite the following reference:

          Volker Blum, Ralf Gehrke, Felix Hanke, Paula Havu,
          Ville Havu, Xinguo Ren, Karsten Reuter, and Matthias Scheffler,
          'Ab Initio Molecular Simulations with Numeric Atom-Centered Orbitals',
          Computer Physics Communications 180, 2175-2196 (2009)

          For any questions about FHI-aims, please visit the aimsclub website
          with its forums and wiki. Contributions to both the forums and the
          wiki are warmly encouraged - they are for you, and everyone is welcome there.

------------------------------------------------------------



  Date     :  20210620, Time     :  164139.257
  Time zero on CPU 1             :   0.263304000000000E+00  s.
  Internal wall clock time zero  :           393439299.257  s.

  FHI-aims created a unique identifier for this run for later identification
  aims_uuid : 91C3506D-556D-4521-A3F2-93916EAD4766

  Using       56 parallel tasks.
  Task        0 on host d021 reporting.
  Task        1 on host d021 reporting.
  Task        2 on host d021 reporting.
  Task        3 on host d021 reporting.
  Task        4 on host d021 reporting.
  Task        5 on host d021 reporting.
  Task        6 on host d021 reporting.
  Task        7 on host d021 reporting.
  Task        8 on host d021 reporting.
  Task        9 on host d021 reporting.
  Task       10 on host d021 reporting.
  Task       11 on host d021 reporting.
  Task       12 on host d021 reporting.
  Task       13 on host d021 reporting.
  Task       14 on host d021 reporting.
  Task       15 on host d021 reporting.
  Task       16 on host d021 reporting.
  Task       17 on host d021 reporting.
  Task       18 on host d021 reporting.
  Task       19 on host d021 reporting.
  Task       20 on host d021 reporting.
  Task       21 on host d021 reporting.
  Task       22 on host d021 reporting.
  Task       23 on host d021 reporting.
  Task       24 on host d021 reporting.
  Task       25 on host d021 reporting.
  Task       26 on host d021 reporting.
  Task       27 on host d021 reporting.
  Task       28 on host d021 reporting.
  Task       29 on host d021 reporting.
  Task       30 on host d021 reporting.
  Task       31 on host d021 reporting.
  Task       32 on host d021 reporting.
  Task       33 on host d021 reporting.
  Task       34 on host d021 reporting.
  Task       35 on host d021 reporting.
  Task       36 on host d021 reporting.
  Task       37 on host d021 reporting.
  Task       38 on host d021 reporting.
  Task       39 on host d021 reporting.
  Task       40 on host d021 reporting.
  Task       41 on host d021 reporting.
  Task       42 on host d021 reporting.
  Task       43 on host d021 reporting.
  Task       44 on host d021 reporting.
  Task       45 on host d021 reporting.
  Task       46 on host d021 reporting.
  Task       47 on host d021 reporting.
  Task       48 on host d021 reporting.
  Task       49 on host d021 reporting.
  Task       50 on host d021 reporting.
  Task       51 on host d021 reporting.
  Task       52 on host d021 reporting.
  Task       53 on host d021 reporting.
  Task       54 on host d021 reporting.
  Task       55 on host d021 reporting.

  Performing system and environment tests:
  *** Environment variable OMP_NUM_THREADS is not set
  *** For performance reasons you might want to set it to 1
  | Stacksize not measured: no C compiler
  | Checking for scalapack...
  | Testing pdtran()...
  | All pdtran() tests passed.

  Obtaining array dimensions for all initial allocations:
  
  -----------------------------------------------------------------------
  Parsing control.in (first pass over file, find array dimensions only).
  The contents of control.in will be repeated verbatim below
  unless switched off by setting 'verbatim_writeout .false.' .
  in the first line of control.in .
  -----------------------------------------------------------------------
  
  #===============================================================================
  # FHI-aims file: ./Runs/es/control.in
  # Created using the Atomic Simulation Environment (ASE)
  # Mon Jan 13 16:04:38 2020
  #===============================================================================
  xc                                 pbe
  relativistic                       zora scalar 1e-12
  occupation_type                    gaussian 0.0001
  load_balancing                     .true.
  KS_method                          scalapack_fast
  mixer                              pulay
  n_max_pulay                        5
  charge_mix_param                   0.4
  sc_accuracy_etot                   1e-6
  sc_accuracy_eev                    1e-4
  sc_accuracy_rho                    1e-6
  sc_iter_limit                      100
  prodbas_threshold                  1e-4
  basis_threshold                    1e-5
  override_illconditioning           .true.
  use_logsbt                         .true.
  spin                               none
  charge                             0
  #===============================================================================
  
  ################################################################################
  #
  #  FHI-aims code project
  # Volker Blum, Fritz Haber Institute Berlin, 2009
  #
  #  Suggested "tight" defaults for H atom (to be pasted into control.in file)
  #
  ################################################################################
    species        H
  #     global species definitions
      nucleus             1
      mass                1.00794
  #
      l_hartree           6
  #
      cut_pot             4.0  2.0  1.0
      basis_dep_cutoff    1e-4
  #
      radial_base         24 7.0
      radial_multiplier   2
      angular_grids       specified
        division   0.1930   50
        division   0.3175  110
        division   0.4293  194
        division   0.5066  302
        division   0.5626  434
  #      division   0.5922  590
  #      division   0.6227  974
  #      division   0.6868 1202
  #      outer_grid  770
        outer_grid  434
  ################################################################################
  #
  #  Definition of "minimal" basis
  #
  ################################################################################
  #     valence basis states
      valence      1  s   1.
  #     ion occupancy
      ion_occ      1  s   0.5
  ################################################################################
  #
  #  Suggested additional basis functions. For production calculations,
  #  uncomment them one after another (the most important basis functions are
  #  listed first).
  #
  #  Basis constructed for dimers: 0.5 A, 0.7 A, 1.0 A, 1.5 A, 2.5 A
  #
  ################################################################################
  #  "First tier" - improvements: -1014.90 meV to -62.69 meV
       hydro 2 s 2.1
       hydro 2 p 3.5
  #  "Second tier" - improvements: -12.89 meV to -1.83 meV
       hydro 1 s 0.85
       hydro 2 p 3.7
       hydro 2 s 1.2
       hydro 3 d 7
  #  "Third tier" - improvements: -0.25 meV to -0.12 meV
  #     hydro 4 f 11.2
  #     hydro 3 p 4.8
  #     hydro 4 d 9
  #     hydro 3 s 3.2
  ################################################################################
  #
  # For methods that use the localized form of the "resolution of identity" for
  # the two-electron Coulomb operator (RI_method LVL), particularly Hartree-Fock and
  # hybrid density functional calculations, the highest accuracy can be obtained by
  # uncommenting the line beginning with "for_aux"  below, thus adding an extra g radial
  # function to the construction of the product basis set for the expansion.
  # See Ref. New J. Phys. 17, 093020 (2015) for more information, particularly Figs. 1 and 6.
  #
  ################################################################################
  #
  # for_aux hydro 5 g 6.0
  ################################################################################
  #
  #  FHI-aims code project
  # Volker Blum, Fritz Haber Institute Berlin, 2009
  #
  #  Suggested "tight" defaults for C atom (to be pasted into control.in file)
  #
  ################################################################################
    species        C
  #     global species definitions
      nucleus             6
      mass                12.0107
  #
      l_hartree           6
  #
      cut_pot             4.0  2.0  1.0
      basis_dep_cutoff    1e-4
  #
      radial_base         34 7.0
      radial_multiplier   2
      angular_grids specified
        division   0.2187   50
        division   0.4416  110
        division   0.6335  194
        division   0.7727  302
        division   0.8772  434
  #      division   0.9334  590
  #      division   0.9924  770
  #      division   1.0230  974
  #      division   1.5020 1202
  #     outer_grid  974
        outer_grid  434
  ################################################################################
  #
  #  Definition of "minimal" basis
  #
  ################################################################################
  #     valence basis states
      valence      2  s   2.
      valence      2  p   2.
  #     ion occupancy
      ion_occ      2  s   1.
      ion_occ      2  p   1.
  ################################################################################
  #
  #  Suggested additional basis functions. For production calculations,
  #  uncomment them one after another (the most important basis functions are
  #  listed first).
  #
  #  Constructed for dimers: 1.0 A, 1.25 A, 1.5 A, 2.0 A, 3.0 A
  #
  ################################################################################
  #  "First tier" - improvements: -1214.57 meV to -155.61 meV
       hydro 2 p 1.7
       hydro 3 d 6
       hydro 2 s 4.9
  #  "Second tier" - improvements: -67.75 meV to -5.23 meV
       hydro 4 f 9.8
       hydro 3 p 5.2
       hydro 3 s 4.3
       hydro 5 g 14.4
       hydro 3 d 6.2
  #  "Third tier" - improvements: -2.43 meV to -0.60 meV
  #     hydro 2 p 5.6
  #     hydro 2 s 1.4
  #     hydro 3 d 4.9
  #     hydro 4 f 11.2
  #  "Fourth tier" - improvements: -0.39 meV to -0.18 meV
  #     hydro 2 p 2.1
  #     hydro 5 g 16.4
  #     hydro 4 d 13.2
  #     hydro 3 s 13.6
  #     hydro 4 f 17.6
  #  Further basis functions - improvements: -0.08 meV and below
  #     hydro 3 s 2
  #     hydro 3 p 6
  #     hydro 4 d 20
  ################################################################################
  #
  # For methods that use the localized form of the "resolution of identity" for
  # the two-electron Coulomb operator (RI_method LVL), particularly Hartree-Fock and
  # hybrid density functional calculations, the highest accuracy can be obtained by
  # uncommenting the line beginning with "for_aux"  below, thus adding an extra g radial
  # function to the construction of the product basis set for the expansion.
  # See Ref. New J. Phys. 17, 093020 (2015) for more information, particularly Figs. 1 and 6.
  #
  ################################################################################
  #
  # for_aux hydro 5 g 6.0
  
  -----------------------------------------------------------------------
  Completed first pass over input file control.in .
  -----------------------------------------------------------------------
  
  
  -----------------------------------------------------------------------
  Parsing geometry.in (first pass over file, find array dimensions only).
  The contents of geometry.in will be repeated verbatim below
  unless switched off by setting 'verbatim_writeout .false.' .
  in the first line of geometry.in .
  -----------------------------------------------------------------------
  
  #=======================================================
  # FHI-aims file: geometry.in
  # Created using the Atomic Simulation Environment (ASE)
  # Sun Jun 20 15:47:01 2021
  #=======================================================
  atom 9.4961050000000000 42.1553400000000025 62.1806600000000032 H
  atom 9.2814660000000000 43.1994029999999967 61.9547650000000019 C
  atom 8.8208190000000002 44.0357580000000013 62.9689890000000005 C
  atom 9.5022719999999996 43.6443610000000035 60.6716180000000023 C
  atom 8.5993279999999999 43.6484049999999968 63.9609310000000022 H
  atom 8.6837669999999996 45.3930360000000022 62.6821380000000019 C
  atom 9.2510100000000008 45.0038199999999975 60.3309819999999988 C
  atom 9.8983899999999991 42.9603230000000025 59.9278529999999989 H
  atom 8.4025820000000007 46.0702580000000026 63.4835289999999972 H
  atom 8.9654849999999993 45.8807630000000017 61.4092350000000025 C
  atom 9.4489739999999998 45.4937889999999996 58.9863659999999967 C
  atom 9.0416249999999998 47.3460790000000031 61.1556789999999992 C
  atom 9.3499920000000003 44.6941709999999972 57.8261550000000000 C
  atom 9.7344989999999996 46.8877719999999982 58.8147670000000033 C
  atom 8.7408719999999995 48.2560470000000024 62.1724650000000025 C
  atom 9.5289210000000004 47.7928509999999989 59.9263159999999999 C
  atom 8.7104160000000004 43.3697069999999982 57.8620110000000025 C
  atom 9.7725690000000007 45.1595709999999997 56.5737409999999983 C
  atom 10.1418479999999995 47.3634520000000023 57.5597929999999991 C
  atom 8.3152489999999997 47.9449749999999995 63.1211229999999972 H
  atom 8.9807129999999997 49.6334119999999999 61.9368369999999970 C
  atom 9.7839899999999993 49.1966499999999982 59.7214230000000015 C
  atom 8.6799599999999995 42.5958129999999997 56.7735130000000012 C
  atom 8.2086530000000000 43.0539229999999975 58.7699470000000019 H
  atom 9.7535340000000001 44.3042560000000023 55.4288969999999992 C
  atom 10.2408300000000008 46.5274640000000019 56.4379989999999978 C
  atom 10.4616360000000004 48.8149469999999965 57.4266119999999987 C
  atom 8.7403010000000005 50.3351270000000000 62.7354100000000017 H
  atom 9.5136930000000000 50.0916920000000019 60.7638200000000026 C
  atom 10.2674789999999998 49.6354320000000016 58.4920600000000022 C
  atom 8.1689080000000001 41.6364930000000015 56.8424079999999989 H
  atom 9.2205539999999999 42.9855400000000003 55.5364659999999972 C
  atom 10.2179880000000001 44.7625480000000024 54.1687999999999974 C
  atom 10.7395470000000000 46.9409890000000019 55.1676580000000030 C
  atom 10.8304200000000002 49.2092600000000004 56.4853809999999967 H
  atom 9.6918609999999994 51.1560959999999980 60.6147599999999969 H
  atom 10.5037789999999998 50.6972280000000026 58.3883319999999983 H
  atom 9.2395890000000005 42.1251770000000008 54.3660110000000003 C
  atom 10.2522509999999993 43.9304929999999985 53.0649349999999984 C
  atom 10.7585820000000005 46.1345469999999978 54.0842820000000017 C
  atom 11.1416419999999992 47.9463969999999975 55.0644419999999997 H
  atom 8.7028020000000001 40.7907250000000019 54.4018670000000029 C
  atom 9.7154640000000008 42.6121929999999978 53.1340870000000010 C
  atom 10.6594859999999994 44.2918540000000007 52.1219109999999972 H
  atom 11.1613249999999997 46.4765919999999966 53.1320380000000014 H
  atom 8.2916840000000001 40.3885409999999965 55.3246579999999994 H
  atom 8.7104160000000004 40.0255310000000009 53.2723900000000015 C
  atom 9.7306919999999995 41.7752109999999988 51.9687529999999995 C
  atom 8.2871919999999992 39.0197550000000035 53.3161860000000019 H
  atom 9.1939050000000009 40.5033809999999974 52.0507109999999997 C
  atom 10.1319119999999998 42.1684369999999973 51.0369979999999970 H
  atom 9.1595659999999999 39.8658140000000003 51.1683870000000027 H
  
  -----------------------------------------------------------------------
  Completed first pass over input file geometry.in .
  -----------------------------------------------------------------------
  

  Basic array size parameters:
  | Number of species                 :        2
  | Number of atoms                   :       52
  | Max. basis fn. angular momentum   :        4
  | Max. atomic/ionic basis occupied n:        2
  | Max. number of basis fn. types    :        2
  | Max. radial fns per species/type  :        8
  | Max. logarithmic grid size        :     1277
  | Max. radial integration grid size :       69
  | Max. angular integration grid size:      434
  | Max. angular grid division number :        8
  | Radial grid for Hartree potential :     1277
  | Number of spin channels           :        1

------------------------------------------------------------
          Reading file control.in.
------------------------------------------------------------
  XC: Using PBE gradient-corrected functionals.
  Scalar relativistic treatment of kinetic energy: ZORA.
  Threshold value for ZORA:   0.100000E-11
  Occupation type: Gaussian broadening, width =   0.100000E-03 eV.
  Since 'load_balancing .true.' is present in control.in, automatically turning on 'use_local_index .true.'.
  Using load balancing for integrations.
  Kohn-Sham electronic structure solved by the ELSI library.
  Using pulay charge density mixing.
  Pulay mixing - number of memorized iterations:    5
  Charge density mixing - mixing parameter:     0.4000
  Convergence accuracy of total energy:  0.1000E-05
  Convergence accuracy of sum of eigenvalues:  0.1000E-03
  Convergence accuracy of self-consistent charge density:  0.1000E-05
  Maximum number of s.-c. iterations  :   100
  * Ignoring prodbas_threshold
  Threshold for basis singularities:  0.1000E-04
  override_illconditioning: Explicitly overriding any built-in checks for an ill-conditioned overlap matrix.
  *** WARNING: If you use this flag, you should really know what you are doing.
  *** DO NOT keep this flag set by default in all your control.in files.
  Using 1D integrations for auxiliary 2-center integrals.
  Spin treatment: No spin polarisation.
  Charge =   0.000000E+00: Neutral system requested explicitly.
 
  Reading configuration options for species H                   .
  | Found nuclear charge :   1.0000
  | Found atomic mass :    1.00794000000000      amu
  | Found l_max for Hartree potential  :   6
  | Found cutoff potl. onset [A], width [A], scale factor :    4.00000    2.00000    1.00000
  | Threshold for basis-dependent cutoff potential is   0.100000E-03
  | Found data for basic radial integration grid :    24 points, outermost radius =    7.000 A
  | Found multiplier for basic radial grid :   2
  | Found angular grid specification: user-specified.
  | Specified grid contains     6 separate shells.
  | Check grid settings after all constraints further below.
  | Found free-atom valence shell :  1 s   1.000
  | No ionic wave fns used. Skipping ion_occ.
  | Found hydrogenic basis function :  2 s   2.100
  | Found hydrogenic basis function :  2 p   3.500
  | Found hydrogenic basis function :  1 s   0.850
  | Found hydrogenic basis function :  2 p   3.700
  | Found hydrogenic basis function :  2 s   1.200
  | Found hydrogenic basis function :  3 d   7.000
  Species H                   : Missing cutoff potential type.
  Defaulting to exp(1/x)/(1-x)^2 type cutoff potential.
  Species H : No 'logarithmic' tag. Using default grid for free atom:
  | Default logarithmic grid data [bohr] : 0.1000E-03 0.1000E+03 0.1012E+01
  Species H : On-site basis accuracy parameter (for Gram-Schmidt orthonormalisation) not specified.
  Using default value basis_acc =  0.1000000E-03.
  Species H                   : Using default innermost maximum threshold i_radial=  2 for radial functions.
  Species H                   : Default cutoff onset for free atom density etc. : 0.40000000E+01 AA.
  Species H                   : Basic radial grid will be enhanced according to radial_multiplier =   2, to contain    49 grid points.
 
  Reading configuration options for species C                   .
  | Found nuclear charge :   6.0000
  | Found atomic mass :    12.0107000000000      amu
  | Found l_max for Hartree potential  :   6
  | Found cutoff potl. onset [A], width [A], scale factor :    4.00000    2.00000    1.00000
  | Threshold for basis-dependent cutoff potential is   0.100000E-03
  | Found data for basic radial integration grid :    34 points, outermost radius =    7.000 A
  | Found multiplier for basic radial grid :   2
  | Found angular grid specification: user-specified.
  | Specified grid contains     6 separate shells.
  | Check grid settings after all constraints further below.
  | Found free-atom valence shell :  2 s   2.000
  | Found free-atom valence shell :  2 p   2.000
  | No ionic wave fns used. Skipping ion_occ.
  | No ionic wave fns used. Skipping ion_occ.
  | Found hydrogenic basis function :  2 p   1.700
  | Found hydrogenic basis function :  3 d   6.000
  | Found hydrogenic basis function :  2 s   4.900
  | Found hydrogenic basis function :  4 f   9.800
  | Found hydrogenic basis function :  3 p   5.200
  | Found hydrogenic basis function :  3 s   4.300
  | Found hydrogenic basis function :  5 g  14.400
  | Found hydrogenic basis function :  3 d   6.200
  Species C                   : Missing cutoff potential type.
  Defaulting to exp(1/x)/(1-x)^2 type cutoff potential.
  Species C : No 'logarithmic' tag. Using default grid for free atom:
  | Default logarithmic grid data [bohr] : 0.1000E-03 0.1000E+03 0.1012E+01
  Species C : On-site basis accuracy parameter (for Gram-Schmidt orthonormalisation) not specified.
  Using default value basis_acc =  0.1000000E-03.
  Species C                   : Using default innermost maximum threshold i_radial=  2 for radial functions.
  Species C                   : Default cutoff onset for free atom density etc. : 0.40000000E+01 AA.
  Species C                   : Basic radial grid will be enhanced according to radial_multiplier =   2, to contain    69 grid points.
 
  Finished reading input file 'control.in'. Consistency checks are next.
 
  MPI_IN_PLACE appears to work with this MPI implementation.
  | Keeping use_mpi_in_place .true. (see manual).
  Target number of points in a grid batch is not set. Defaulting to  100
  Method for grid partitioning is not set. Defaulting to parallel hash+maxmin partitioning.
  Batch size limit is not set. Defaulting to    200
  By default, will store active basis functions for each batch.
  If in need of memory, prune_basis_once .false. can be used to disable this option.
  communication_type for Hartree potential was not specified.
  Defaulting to calc_hartree .
  Pulay mixer: Number of initial linear mixing iterations not set.
  Defaulting to    0 iterations.
  Work space size for distributed Hartree potential not set.
  Defaulting to   0.200000E+03 MB.
  Algorithm-dependent basis array size parameters:
  | n_max_pulay                         :        5
  Presetting      1001 iterations before the initial mixing cycle
  is restarted anyway using the sc_init_iter criterion / keyword.
  Presetting a factor      1.000 between actual scf density residual
  and density convergence criterion sc_accuracy_rho below which sc_init_iter
  takes no effect.
  Calculation of forces was not defined in control.in. No forces will be calculated.
  Geometry relaxation not requested: no relaxation will be performed.
  No accuracy limit for integral partition fn. given. Defaulting to  0.1000E-14.
  No threshold value for u(r) in integrations given. Defaulting to  0.1000E-05.
  No accuracy for occupation numbers given. Defaulting to  0.1000E-12.
  No threshold value for occupation numbers given. Defaulting to  0.0000E+00.
  No accuracy for fermi level given. Defaulting to  0.1000E-19.
  Maximum # of iterations to find E_F not set. Defaulting to  200.
  Will not use alltoall communication since running on < 1024 CPUs.
  partition_type (choice of integration weights) for integrals was not specified.
  | Using a version of the partition function of Stratmann and coworkers ('stratmann_sparse').
  | At each grid point, the set of atoms used to build the partition table is smoothly restricted to
  | only those atoms whose free-atom density would be non-zero at that grid point.
  Partitioning for Hartree potential was not defined. Using partition_type for integrals.
  | Adjusted default value of keyword multip_moments_threshold to:       0.10000000E-11
  | This value may affect high angular momentum components of the Hartree potential in periodic systems.
  No q(lm)/r^(l+1) cutoff set for long-range Hartree potential.
  | Using default value of  0.100000E-09 .
  | Verify using the multipole_threshold keyword.
  Defaulting to new monopole extrapolation.
  Density update method: automatic selection selected.
 * Warning: use_local_index and/or load_balancing needs packed_matrix_format = index
 * Changing the default setting to packed_matrix_format = index
------------------------------------------------------------


------------------------------------------------------------
          Reading geometry description geometry.in.
------------------------------------------------------------
  Input structure read successfully.
  The structure contains       52 atoms,  and a total of        222.000 electrons.

  Input geometry:
  | No unit cell requested.
  | Atomic structure:
  |       Atom                x [A]            y [A]            z [A]
  |    1: Species H             9.49610500       42.15534000       62.18066000
  |    2: Species C             9.28146600       43.19940300       61.95476500
  |    3: Species C             8.82081900       44.03575800       62.96898900
  |    4: Species C             9.50227200       43.64436100       60.67161800
  |    5: Species H             8.59932800       43.64840500       63.96093100
  |    6: Species C             8.68376700       45.39303600       62.68213800
  |    7: Species C             9.25101000       45.00382000       60.33098200
  |    8: Species H             9.89839000       42.96032300       59.92785300
  |    9: Species H             8.40258200       46.07025800       63.48352900
  |   10: Species C             8.96548500       45.88076300       61.40923500
  |   11: Species C             9.44897400       45.49378900       58.98636600
  |   12: Species C             9.04162500       47.34607900       61.15567900
  |   13: Species C             9.34999200       44.69417100       57.82615500
  |   14: Species C             9.73449900       46.88777200       58.81476700
  |   15: Species C             8.74087200       48.25604700       62.17246500
  |   16: Species C             9.52892100       47.79285100       59.92631600
  |   17: Species C             8.71041600       43.36970700       57.86201100
  |   18: Species C             9.77256900       45.15957100       56.57374100
  |   19: Species C            10.14184800       47.36345200       57.55979300
  |   20: Species H             8.31524900       47.94497500       63.12112300
  |   21: Species C             8.98071300       49.63341200       61.93683700
  |   22: Species C             9.78399000       49.19665000       59.72142300
  |   23: Species C             8.67996000       42.59581300       56.77351300
  |   24: Species H             8.20865300       43.05392300       58.76994700
  |   25: Species C             9.75353400       44.30425600       55.42889700
  |   26: Species C            10.24083000       46.52746400       56.43799900
  |   27: Species C            10.46163600       48.81494700       57.42661200
  |   28: Species H             8.74030100       50.33512700       62.73541000
  |   29: Species C             9.51369300       50.09169200       60.76382000
  |   30: Species C            10.26747900       49.63543200       58.49206000
  |   31: Species H             8.16890800       41.63649300       56.84240800
  |   32: Species C             9.22055400       42.98554000       55.53646600
  |   33: Species C            10.21798800       44.76254800       54.16880000
  |   34: Species C            10.73954700       46.94098900       55.16765800
  |   35: Species H            10.83042000       49.20926000       56.48538100
  |   36: Species H             9.69186100       51.15609600       60.61476000
  |   37: Species H            10.50377900       50.69722800       58.38833200
  |   38: Species C             9.23958900       42.12517700       54.36601100
  |   39: Species C            10.25225100       43.93049300       53.06493500
  |   40: Species C            10.75858200       46.13454700       54.08428200
  |   41: Species H            11.14164200       47.94639700       55.06444200
  |   42: Species C             8.70280200       40.79072500       54.40186700
  |   43: Species C             9.71546400       42.61219300       53.13408700
  |   44: Species H            10.65948600       44.29185400       52.12191100
  |   45: Species H            11.16132500       46.47659200       53.13203800
  |   46: Species H             8.29168400       40.38854100       55.32465800
  |   47: Species C             8.71041600       40.02553100       53.27239000
  |   48: Species C             9.73069200       41.77521100       51.96875300
  |   49: Species H             8.28719200       39.01975500       53.31618600
  |   50: Species C             9.19390500       40.50338100       52.05071100
  |   51: Species H            10.13191200       42.16843700       51.03699800
  |   52: Species H             9.15956600       39.86581400       51.16838700
  |

  | The smallest distance between any two atoms is         1.08435853 AA.
  |
  | The first atom of this pair is atom number                     17 .
  | The second atom of this pair is atom number                    24 .

  Number of empty states per atom not set in control.in - providing a guess from actual geometry.
  | Total number of empty states used during s.c.f. cycle:      129
  If you use a very high smearing, use empty_states (per atom!) in control.in to increase this value.

  Structure-dependent array size parameters: 
  | Maximum number of distinct radial functions  :       18
  | Maximum number of basis functions            :     1596
  | Number of Kohn-Sham states (occupied + empty):      240
------------------------------------------------------------

------------------------------------------------------------
          Preparing all fixed parts of the calculation.
------------------------------------------------------------
  Determining machine precision:
    2.225073858507201E-308
  Setting up grids for atomic and cluster calculations.

  Creating wave function, potential, and density for free atoms.

  Species: H

  List of occupied orbitals and eigenvalues:
    n    l              occ      energy [Ha]    energy [eV]
    1    0           1.0000        -0.238386        -6.4868


  Species: C

  List of occupied orbitals and eigenvalues:
    n    l              occ      energy [Ha]    energy [eV]
    1    0           2.0000       -10.049212      -273.4530
    2    0           2.0000        -0.504761       -13.7352
    2    1           2.0000        -0.193631        -5.2690

  Creating fixed part of basis set: Ionic, confined, hydrogenic.
 
  H                    hydrogenic:
 
  List of hydrogenic basis orbitals: 
    n    l      effective z      eigenvalue [eV]  inner max. [A]     outer max. [A]     outer radius [A]   
    2    0         2.100000       -14.9965           0.193243           1.317208           5.373006
    2    1         3.500000       -41.6672           0.602369           0.602369           4.056063
    1    0         0.850000        -9.8292           0.624871           0.624871           5.373006
    2    1         3.700000       -46.5653           0.573622           0.573622           3.910002
    2    0         1.200000        -4.5995           0.334980           2.228188           5.505995
    3    2         7.000000       -74.0753           0.680699           0.680699           3.769201
 
 
  C                    hydrogenic:
 
  List of hydrogenic basis orbitals: 
    n    l      effective z      eigenvalue [eV]  inner max. [A]     outer max. [A]     outer radius [A]   
    2    1         1.700000        -9.8152           1.245706           1.245706           5.401630
    3    2         6.000000       -54.4226           0.792453           0.792453           4.178599
    2    0         4.900000       -81.6681           0.082559           0.562749           3.353238
    4    3         9.800000       -81.6681           0.863254           0.863254           4.028125
    3    1         5.200000       -40.8774           0.305389           1.215618           4.898362
    3    0         4.300000       -27.9508           0.091041           1.610311           5.401630
    5    4        14.400000      -112.8510           0.917666           0.917666           3.883070
    3    2         6.200000       -58.1113           0.763917           0.763917           4.077671
 

  Adding cutoff potential to free-atom effective potential.
  Creating atomic-like basis functions for current effective potential.

  Species H                   :

  List of atomic basis orbitals and eigenvalues:
    n    l      energy [Ha]    energy [eV]    outer radius [A]
    1    0        -0.238386        -6.4868       5.373006


  Species C                   :

  List of atomic basis orbitals and eigenvalues:
    n    l      energy [Ha]    energy [eV]    outer radius [A]
    1    0       -10.049212      -273.4530       1.934409
    2    0        -0.504761       -13.7352       5.271162
    2    1        -0.193631        -5.2690       5.401630

  Assembling full basis from fixed parts.
  | Species H :   atomic orbital   1 s accepted.
  | Species H :    hydro orbital   2 s accepted.
  | Species H :    hydro orbital   1 s accepted.
  | Species H :    hydro orbital   2 s accepted.
  | Species H :    hydro orbital   2 p accepted.
  | Species H :    hydro orbital   2 p accepted.
  | Species H :    hydro orbital   3 d accepted.
  | Species C :   atomic orbital   1 s accepted.
  | Species C :    hydro orbital   2 s accepted.
  | Species C :   atomic orbital   2 s accepted.
  | Species C :    hydro orbital   3 s accepted.
  | Species C :    hydro orbital   3 p accepted.
  | Species C :   atomic orbital   2 p accepted.
  | Species C :    hydro orbital   2 p accepted.
  | Species C :    hydro orbital   3 d accepted.
  | Species C :    hydro orbital   3 d accepted.
  | Species C :    hydro orbital   4 f accepted.
  | Species C :    hydro orbital   5 g accepted.
 
  Basis size parameters after reduction:
  | Total number of radial functions:       18
  | Total number of basis functions :     1596
 
  Per-task memory consumption for arrays in subroutine allocate_ext:
  |           4.450536MB.
  Testing on-site integration grid accuracy.
  |  Species  Function  <phi|h_atom|phi> (log., in eV)  <phi|h_atom|phi> (rad., in eV)
           1        1                 -6.4870767962                 -6.4871688290
           1        2                 13.5032046589                 13.5028982997
           1        3                 32.8195184817                 32.8119941656
           1        4                 33.8513856511                 33.7670005767 ***
           1        5                 28.8544614965                 28.8544615203
           1        6                 59.6326952547                 59.6327656460
           1        7                 60.2719308513                 60.2719305949
           2        8               -273.4529726040               -273.4529710464
           2        9                -10.7721037319                -10.7721022101
           2       10                 17.6044132601                 17.6044162063
           2       11                 53.7706460658                 53.7706913770
           2       12                 15.0973290362                 15.0973256030
           2       13                  3.8545134692                  3.8545724687
           2       14                 12.1156992592                 12.1182024431
           2       15                 29.4352039302                 29.4352041816
           2       16                 54.8741144708                 54.8740268729
           2       17                 59.3556032049                 59.3556031382
           2       18                 93.4551837154                 93.4551838009
 * Note: Onsite integrals marked "***" above are less accurate than
 * onsite_accuracy_threshold =    0.03000 eV. Usually, this is harmless.
 * When in doubt, tighten the "radial" and/or "radial_multiplier" flags to check.

  Preparing densities etc. for the partition functions (integrals / Hartree potential).

  Preparations completed.
  max(cpu_time)          :      0.201 s.
  Wall clock time (cpu1) :      0.201 s.
------------------------------------------------------------

------------------------------------------------------------
          Begin self-consistency loop: Initialization.

          Date     :  20210620, Time     :  164139.631
------------------------------------------------------------

  Initializing index lists of integration centers etc. from given atomic structure:
  | Number of centers in hartree potential         :        52
  | Number of centers in hartree multipole         :        52
  | Number of centers in electron density summation:        52
  | Number of centers in basis integrals           :        52
  | Number of centers in integrals                 :        52
  | Number of centers in hamiltonian               :        52
  * Using 56 tasks for Scalapack Eigenvalue solver.
  Detailed listing of tasks and assigned k-points:
  (for non-periodic systems, the "k-point" denotes an internal label only)
   Task     0 k-point     1 on d021
   Task     1 k-point     1 on d021
   Task     2 k-point     1 on d021
   Task     3 k-point     1 on d021
   Task     4 k-point     1 on d021
   Task     5 k-point     1 on d021
   Task     6 k-point     1 on d021
   Task     7 k-point     1 on d021
   Task     8 k-point     1 on d021
   Task     9 k-point     1 on d021
   Task    10 k-point     1 on d021
   Task    11 k-point     1 on d021
   Task    12 k-point     1 on d021
   Task    13 k-point     1 on d021
   Task    14 k-point     1 on d021
   Task    15 k-point     1 on d021
   Task    16 k-point     1 on d021
   Task    17 k-point     1 on d021
   Task    18 k-point     1 on d021
   Task    19 k-point     1 on d021
   Task    20 k-point     1 on d021
   Task    21 k-point     1 on d021
   Task    22 k-point     1 on d021
   Task    23 k-point     1 on d021
   Task    24 k-point     1 on d021
   Task    25 k-point     1 on d021
   Task    26 k-point     1 on d021
   Task    27 k-point     1 on d021
   Task    28 k-point     1 on d021
   Task    29 k-point     1 on d021
   Task    30 k-point     1 on d021
   Task    31 k-point     1 on d021
   Task    32 k-point     1 on d021
   Task    33 k-point     1 on d021
   Task    34 k-point     1 on d021
   Task    35 k-point     1 on d021
   Task    36 k-point     1 on d021
   Task    37 k-point     1 on d021
   Task    38 k-point     1 on d021
   Task    39 k-point     1 on d021
   Task    40 k-point     1 on d021
   Task    41 k-point     1 on d021
   Task    42 k-point     1 on d021
   Task    43 k-point     1 on d021
   Task    44 k-point     1 on d021
   Task    45 k-point     1 on d021
   Task    46 k-point     1 on d021
   Task    47 k-point     1 on d021
   Task    48 k-point     1 on d021
   Task    49 k-point     1 on d021
   Task    50 k-point     1 on d021
   Task    51 k-point     1 on d021
   Task    52 k-point     1 on d021
   Task    53 k-point     1 on d021
   Task    54 k-point     1 on d021
   Task    55 k-point     1 on d021
  Tasks:    56 split into      8 X      7 BLACS grid
  Calculating block size based on n_basis =         1596 max_nprow =            8 max_npcol =            7
  ScaLAPACK block size set to:           16
  Allocating        0.399 MB for ovlp
  Allocating        0.399 MB for ham
  Allocating        0.399 MB for eigenvec
  Required Scalapack workspace - INTEGER:            1 REAL:             1
  Partitioning the integration grid into batches with parallel hashing+maxmin method.
  | Number of batches:     7905
  | Maximal batch size:     200
  | Minimal batch size:       4
  | Average batch size:     110.658
  | Standard deviation of batch sizes:      31.974

  Integration load balanced across     56 MPI tasks.
  Work distribution over tasks is as follows:
  Task      0 has      15746 integration points.
  Task      1 has      15631 integration points.
  Task      2 has      15601 integration points.
  Task      3 has      15730 integration points.
  Task      4 has      15632 integration points.
  Task      5 has      15570 integration points.
  Task      6 has      15558 integration points.
  Task      7 has      15789 integration points.
  Task      8 has      15584 integration points.
  Task      9 has      15468 integration points.
  Task     10 has      15775 integration points.
  Task     11 has      15512 integration points.
  Task     12 has      15620 integration points.
  Task     13 has      15531 integration points.
  Task     14 has      15664 integration points.
  Task     15 has      15660 integration points.
  Task     16 has      15541 integration points.
  Task     17 has      15728 integration points.
  Task     18 has      15614 integration points.
  Task     19 has      15592 integration points.
  Task     20 has      15547 integration points.
  Task     21 has      15719 integration points.
  Task     22 has      15605 integration points.
  Task     23 has      15594 integration points.
  Task     24 has      15658 integration points.
  Task     25 has      15570 integration points.
  Task     26 has      15678 integration points.
  Task     27 has      15479 integration points.
  Task     28 has      15720 integration points.
  Task     29 has      15684 integration points.
  Task     30 has      15583 integration points.
  Task     31 has      15730 integration points.
  Task     32 has      15516 integration points.
  Task     33 has      15702 integration points.
  Task     34 has      15529 integration points.
  Task     35 has      15692 integration points.
  Task     36 has      15643 integration points.
  Task     37 has      15578 integration points.
  Task     38 has      15694 integration points.
  Task     39 has      15526 integration points.
  Task     40 has      15586 integration points.
  Task     41 has      15552 integration points.
  Task     42 has      15662 integration points.
  Task     43 has      15708 integration points.
  Task     44 has      15560 integration points.
  Task     45 has      15678 integration points.
  Task     46 has      15594 integration points.
  Task     47 has      15592 integration points.
  Task     48 has      15558 integration points.
  Task     49 has      15628 integration points.
  Task     50 has      15699 integration points.
  Task     51 has      15547 integration points.
  Task     52 has      15732 integration points.
  Task     53 has      15481 integration points.
  Task     54 has      15735 integration points.
  Task     55 has      15447 integration points.
  Initializing partition tables, free-atom densities, potentials, etc. across the integration grid (initialize_grid_storage).
  | initialize_grid_storage: Actual outermost partition radius vs. multipole_radius_free
  | (-- VB: in principle, multipole_radius_free should be larger, hence this output)
  | Species        1: Confinement radius =              6.000000000000000 AA, multipole_radius_free =              6.071692442739658 AA.
  | Species        1: outer_partition_radius set to              6.071692442739658 AA .
  | Species        2: Confinement radius =              6.000000000000000 AA, multipole_radius_free =              6.029870734432609 AA.
  | Species        2: outer_partition_radius set to              6.029870734432609 AA .
  | The sparse table of interatomic distances needs     32.0120 kbyte instead of    21.6320 kbyte of memory.
  | Using the partition_type stratmann_smoother will reduce your memory usage.
  | Net number of integration points:   874752
  | of which are non-zero points    :   697037
  Renormalizing the initial density to the exact electron count on the 3D integration grid.
  | Initial density: Formal number of electrons (from input files) :     222.0000000000
  | Integrated number of electrons on 3D grid     :     222.0000066536
  | Charge integration error                      :       0.0000066536
  | Normalization factor for density and gradient :       0.9999999700
  Obtaining max. number of non-zero basis functions in each batch (get_n_compute_maxes).
  | Maximal number of non-zero basis functions:      980
  Selecting the method for density update.
  Loop over occupied states selected for charge density update.
  Hamiltonian matrix size:
  | Size of matrix non-packed:               1274406
  | Size of matrix packed:         1060504
  Allocating        3.064 MB for KS_eigenvector
  use_local_index: Max. local matrix size =       811244
  Task:     0 matrix size:      94395
  Task:     1 matrix size:     172550
  Task:     2 matrix size:     304002
  Task:     3 matrix size:     192737
  Task:     4 matrix size:     331772
  Task:     5 matrix size:     515079
  Task:     6 matrix size:     551585
  Task:     7 matrix size:     101025
  Task:     8 matrix size:     211229
  Task:     9 matrix size:     202058
  Task:    10 matrix size:     389690
  Task:    11 matrix size:     409837
  Task:    12 matrix size:     576066
  Task:    13 matrix size:     544759
  Task:    14 matrix size:     351189
  Task:    15 matrix size:     710330
  Task:    16 matrix size:     719549
  Task:    17 matrix size:     369922
  Task:    18 matrix size:     517560
  Task:    19 matrix size:     659741
  Task:    20 matrix size:     424481
  Task:    21 matrix size:     259745
  Task:    22 matrix size:     748679
  Task:    23 matrix size:     703752
  Task:    24 matrix size:     223879
  Task:    25 matrix size:     292165
  Task:    26 matrix size:     538402
  Task:    27 matrix size:     262293
  Task:    28 matrix size:     418361
  Task:    29 matrix size:     757116
  Task:    30 matrix size:     811244
  Task:    31 matrix size:     251615
  Task:    32 matrix size:     114960
  Task:    33 matrix size:     397002
  Task:    34 matrix size:     197986
  Task:    35 matrix size:     486169
  Task:    36 matrix size:     789531
  Task:    37 matrix size:     810563
  Task:    38 matrix size:     258203
  Task:    39 matrix size:     139656
  Task:    40 matrix size:     498930
  Task:    41 matrix size:     318213
  Task:    42 matrix size:     712127
  Task:    43 matrix size:     536169
  Task:    44 matrix size:     241661
  Task:    45 matrix size:     324456
  Task:    46 matrix size:     363883
  Task:    47 matrix size:     222111
  Task:    48 matrix size:     145530
  Task:    49 matrix size:     685604
  Task:    50 matrix size:     388998
  Task:    51 matrix size:     358699
  Task:    52 matrix size:     537589
  Task:    53 matrix size:     420987
  Task:    54 matrix size:     245318
  Task:    55 matrix size:     221395
  Integrating Hamiltonian matrix: batch-based integration.
  Time summed over all CPUs for integration: real work      160.768 s, elapsed      328.638 s
  Time get_set_sparse_local_matrix_scalapack:     0.015624 s
  Start compute_balanced_batch_distribution
  Done load balancing, time needed:      0.009 s
  Integrating overlap matrix with loadbalancing
  Time summed over all CPUs for integration: real work       45.163 s, elapsed       51.790 s
  Time get_set_full_local_matrix_scalapack:     0.017749 s

  Updating Kohn-Sham eigenvalues and eigenvectors using ELSI and the ELPA eigensolver.
  Overlap matrix is not singular
  | Lowest and highest eigenvalues :  0.12E+02,  0.84E-04
  Finished singularity check of overlap matrix
  | Time :     0.100 s
  Finished Cholesky decomposition
  | Time :     0.022 s
  Finished transformation to standard eigenproblem
  | Time :     0.017 s
  Starting ELPA eigensolver
  Finished solving standard eigenproblem
  | Time :     0.105 s
  Finished back-transformation of eigenvectors
  | Time :     0.004 s

  Obtaining occupation numbers and chemical potential using ELSI.
  | Chemical potential (Fermi level):    -7.99686370 eV
  Writing Kohn-Sham eigenvalues.

  State    Occupation    Eigenvalue [Ha]    Eigenvalue [eV]
      1       2.00000         -10.178061         -276.95912
      2       2.00000         -10.175259         -276.88289
      3       2.00000         -10.173461         -276.83397
      4       2.00000         -10.173074         -276.82343
      5       2.00000         -10.172719         -276.81375
      6       2.00000         -10.172446         -276.80633
      7       2.00000         -10.170818         -276.76204
      8       2.00000         -10.170720         -276.75937
      9       2.00000         -10.170608         -276.75633
     10       2.00000         -10.170382         -276.75016
     11       2.00000         -10.169891         -276.73682
     12       2.00000         -10.169855         -276.73582
     13       2.00000         -10.169539         -276.72724
     14       2.00000         -10.168669         -276.70355
     15       2.00000         -10.167174         -276.66289
     16       2.00000         -10.166525         -276.64522
     17       2.00000         -10.166070         -276.63284
     18       2.00000         -10.165882         -276.62773
     19       2.00000         -10.164723         -276.59618
     20       2.00000         -10.164265         -276.58371
     21       2.00000         -10.164029         -276.57731
     22       2.00000         -10.163943         -276.57497
     23       2.00000         -10.163781         -276.57054
     24       2.00000         -10.163495         -276.56277
     25       2.00000         -10.163192         -276.55453
     26       2.00000         -10.163088         -276.55169
     27       2.00000         -10.162980         -276.54876
     28       2.00000         -10.162930         -276.54740
     29       2.00000         -10.162704         -276.54123
     30       2.00000         -10.162251         -276.52891
     31       2.00000         -10.161770         -276.51583
     32       2.00000         -10.161704         -276.51403
     33       2.00000         -10.161519         -276.50901
     34       2.00000         -10.160703         -276.48679
     35       2.00000          -1.022285          -27.81780
     36       2.00000          -1.010437          -27.49540
     37       2.00000          -0.991254          -26.97339
     38       2.00000          -0.990679          -26.95775
     39       2.00000          -0.967105          -26.31628
     40       2.00000          -0.963045          -26.20578
     41       2.00000          -0.942780          -25.65435
     42       2.00000          -0.933277          -25.39575
     43       2.00000          -0.912680          -24.83528
     44       2.00000          -0.901280          -24.52508
     45       2.00000          -0.892777          -24.29370
     46       2.00000          -0.886544          -24.12409
     47       2.00000          -0.876516          -23.85122
     48       2.00000          -0.869221          -23.65271
     49       2.00000          -0.864060          -23.51226
     50       2.00000          -0.854940          -23.26411
     51       2.00000          -0.836358          -22.75847
     52       2.00000          -0.791583          -21.54008
     53       2.00000          -0.781794          -21.27369
     54       2.00000          -0.771555          -20.99508
     55       2.00000          -0.769307          -20.93391
     56       2.00000          -0.764851          -20.81264
     57       2.00000          -0.753758          -20.51080
     58       2.00000          -0.744904          -20.26987
     59       2.00000          -0.731528          -19.90589
     60       2.00000          -0.720835          -19.61491
     61       2.00000          -0.694266          -18.89195
     62       2.00000          -0.685579          -18.65557
     63       2.00000          -0.679149          -18.48058
     64       2.00000          -0.678315          -18.45789
     65       2.00000          -0.658453          -17.91742
     66       2.00000          -0.652999          -17.76900
     67       2.00000          -0.647605          -17.62222
     68       2.00000          -0.642245          -17.47636
     69       2.00000          -0.625315          -17.01568
     70       2.00000          -0.623166          -16.95721
     71       2.00000          -0.615824          -16.75744
     72       2.00000          -0.614795          -16.72942
     73       2.00000          -0.606706          -16.50930
     74       2.00000          -0.600306          -16.33515
     75       2.00000          -0.591970          -16.10833
     76       2.00000          -0.586819          -15.96815
     77       2.00000          -0.580148          -15.78662
     78       2.00000          -0.577571          -15.71652
     79       2.00000          -0.570776          -15.53161
     80       2.00000          -0.569059          -15.48489
     81       2.00000          -0.563506          -15.33377
     82       2.00000          -0.562170          -15.29743
     83       2.00000          -0.556267          -15.13679
     84       2.00000          -0.547100          -14.88734
     85       2.00000          -0.540758          -14.71479
     86       2.00000          -0.539673          -14.68526
     87       2.00000          -0.530518          -14.43612
     88       2.00000          -0.528653          -14.38538
     89       2.00000          -0.521715          -14.19659
     90       2.00000          -0.517443          -14.08035
     91       2.00000          -0.509950          -13.87645
     92       2.00000          -0.507682          -13.81472
     93       2.00000          -0.505864          -13.76525
     94       2.00000          -0.502329          -13.66906
     95       2.00000          -0.496557          -13.51200
     96       2.00000          -0.494562          -13.45773
     97       2.00000          -0.483146          -13.14707
     98       2.00000          -0.476722          -12.97227
     99       2.00000          -0.476199          -12.95804
    100       2.00000          -0.467206          -12.71332
    101       2.00000          -0.452713          -12.31895
    102       2.00000          -0.441929          -12.02551
    103       2.00000          -0.428990          -11.67342
    104       2.00000          -0.410764          -11.17744
    105       2.00000          -0.409944          -11.15516
    106       2.00000          -0.403380          -10.97652
    107       2.00000          -0.393919          -10.71909
    108       2.00000          -0.384972          -10.47563
    109       2.00000          -0.376652          -10.24922
    110       2.00000          -0.366557           -9.97453
    111       2.00000          -0.337662           -9.18825
    112       0.00000          -0.271757           -7.39487
    113       0.00000          -0.243966           -6.63866
    114       0.00000          -0.232194           -6.31831
    115       0.00000          -0.229643           -6.24889
    116       0.00000          -0.214289           -5.83109
    117       0.00000          -0.206238           -5.61202
    118       0.00000          -0.198932           -5.41322
    119       0.00000          -0.192902           -5.24913
    120       0.00000          -0.171413           -4.66440
    121       0.00000          -0.153848           -4.18641
    122       0.00000          -0.142271           -3.87140
    123       0.00000          -0.107799           -2.93336
    124       0.00000          -0.102424           -2.78711
    125       0.00000          -0.074143           -2.01753
    126       0.00000          -0.069419           -1.88897
    127       0.00000          -0.068647           -1.86798
    128       0.00000          -0.065876           -1.79258
    129       0.00000          -0.061046           -1.66115
    130       0.00000          -0.056930           -1.54915
    131       0.00000          -0.054155           -1.47362
    132       0.00000          -0.045592           -1.24062
    133       0.00000          -0.040211           -1.09421
    134       0.00000          -0.037465           -1.01949
    135       0.00000          -0.031855           -0.86681
    136       0.00000          -0.023838           -0.64867
    137       0.00000          -0.021152           -0.57557
    138       0.00000          -0.019029           -0.51780
    139       0.00000          -0.016995           -0.46247
    140       0.00000          -0.013422           -0.36522
    141       0.00000          -0.010944           -0.29780
    142       0.00000          -0.007581           -0.20628
    143       0.00000          -0.004296           -0.11691
    144       0.00000          -0.000255           -0.00694
    145       0.00000           0.002632            0.07161
    146       0.00000           0.005263            0.14322
    147       0.00000           0.008719            0.23726
    148       0.00000           0.013837            0.37653
    149       0.00000           0.016683            0.45398
    150       0.00000           0.019579            0.53277
    151       0.00000           0.020964            0.57045
    152       0.00000           0.025155            0.68450
    153       0.00000           0.027157            0.73898
    154       0.00000           0.030874            0.84012
    155       0.00000           0.032132            0.87436
    156       0.00000           0.038181            1.03895
    157       0.00000           0.040058            1.09004
    158       0.00000           0.043257            1.17709
    159       0.00000           0.047762            1.29966
    160       0.00000           0.049263            1.34051
    161       0.00000           0.052395            1.42574
    162       0.00000           0.055761            1.51734
    163       0.00000           0.057247            1.55776
    164       0.00000           0.060838            1.65549
    165       0.00000           0.063112            1.71735
    166       0.00000           0.066047            1.79723
    167       0.00000           0.066447            1.80811
    168       0.00000           0.068495            1.86384
    169       0.00000           0.071008            1.93223
    170       0.00000           0.073336            1.99557
    171       0.00000           0.076296            2.07613
    172       0.00000           0.079298            2.15780
    173       0.00000           0.081516            2.21816
    174       0.00000           0.085938            2.33849
    175       0.00000           0.087608            2.38393
    176       0.00000           0.090793            2.47059
    177       0.00000           0.094475            2.57080
    178       0.00000           0.096101            2.61504
    179       0.00000           0.098534            2.68124
    180       0.00000           0.100286            2.72891
    181       0.00000           0.102974            2.80207
    182       0.00000           0.104812            2.85208
    183       0.00000           0.107961            2.93778
    184       0.00000           0.109685            2.98468
    185       0.00000           0.112437            3.05958
    186       0.00000           0.118099            3.21364
    187       0.00000           0.119315            3.24673
    188       0.00000           0.122962            3.34598
    189       0.00000           0.127419            3.46726
    190       0.00000           0.128841            3.50593
    191       0.00000           0.133030            3.61992
    192       0.00000           0.135555            3.68865
    193       0.00000           0.138168            3.75974
    194       0.00000           0.142224            3.87011
    195       0.00000           0.143288            3.89908
    196       0.00000           0.147228            4.00628
    197       0.00000           0.148498            4.04084
    198       0.00000           0.151738            4.12900
    199       0.00000           0.154702            4.20967
    200       0.00000           0.155428            4.22941
    201       0.00000           0.158928            4.32465
    202       0.00000           0.161330            4.39002
    203       0.00000           0.166046            4.51835
    204       0.00000           0.167770            4.56525
    205       0.00000           0.169220            4.60471
    206       0.00000           0.172810            4.70240
    207       0.00000           0.173406            4.71863
    208       0.00000           0.177832            4.83906
    209       0.00000           0.179364            4.88074
    210       0.00000           0.182168            4.95705
    211       0.00000           0.184761            5.02759
    212       0.00000           0.186410            5.07248
    213       0.00000           0.190370            5.18022
    214       0.00000           0.191985            5.22417
    215       0.00000           0.193483            5.26494
    216       0.00000           0.197765            5.38147
    217       0.00000           0.201154            5.47367
    218       0.00000           0.202303            5.50496
    219       0.00000           0.206192            5.61077
    220       0.00000           0.209230            5.69344
    221       0.00000           0.213815            5.81821
    222       0.00000           0.215335            5.85958
    223       0.00000           0.222426            6.05253
    224       0.00000           0.224074            6.09737
    225       0.00000           0.225702            6.14166
    226       0.00000           0.226834            6.17246
    227       0.00000           0.228579            6.21995
    228       0.00000           0.232464            6.32567
    229       0.00000           0.238236            6.48274
    230       0.00000           0.240475            6.54364
    231       0.00000           0.243863            6.63585
    232       0.00000           0.247024            6.72187
    233       0.00000           0.247393            6.73189
    234       0.00000           0.251322            6.83881
    235       0.00000           0.257320            7.00202
    236       0.00000           0.261373            7.11232
    237       0.00000           0.263094            7.15916
    238       0.00000           0.268671            7.31091
    239       0.00000           0.271292            7.38223
    240       0.00000           0.277933            7.56294

  Highest occupied state (VBM) at     -9.18824963 eV
  | Occupation number:      2.00000000

  Lowest unoccupied state (CBM) at    -7.39487470 eV
  | Occupation number:      0.00000000

  Overall HOMO-LUMO gap:      1.79337493 eV.
  Calculating total energy contributions from superposition of free atom densities.

  Total energy components:
  | Sum of eigenvalues            :        -790.92030146 Ha      -21522.03643189 eV
  | XC energy correction          :        -186.74689949 Ha       -5081.64168625 eV
  | XC potential correction       :         239.87664255 Ha        6527.37555287 eV
  | Free-atom electrostatic energy:        -569.71121269 Ha      -15502.63086257 eV
  | Hartree energy correction     :           0.00000000 Ha           0.00000000 eV
  | Entropy correction            :           0.00000000 Ha           0.00000000 eV
  | ---------------------------
  | Total energy                  :       -1307.50177110 Ha      -35578.93342784 eV
  | Total energy, T -> 0          :       -1307.50177110 Ha      -35578.93342784 eV  <-- do not rely on this value for anything but (periodic) metals
  | Electronic free energy        :       -1307.50177110 Ha      -35578.93342784 eV

  Derived energy quantities:
  | Kinetic energy                :        1296.07195923 Ha       35267.91242237 eV
  | Electrostatic energy          :       -2416.82683084 Ha      -65765.20416397 eV
  | Energy correction for multipole
  | error in Hartree potential    :           0.00000000 Ha           0.00000000 eV
  | Sum of eigenvalues per atom                           :        -413.88531600 eV
  | Total energy (T->0) per atom                          :        -684.21025823 eV  <-- do not rely on this value for anything but (periodic) metals
  | Electronic free energy per atom                       :        -684.21025823 eV
  Initialize hartree_potential_storage
  Max. number of atoms included in rho_multipole:           52

  End scf initialization - timings             :  max(cpu_time)    wall_clock(cpu1)
  | Time for scf. initialization               :        8.798 s           8.853 s
  | Boundary condition initialization          :        0.000 s           0.003 s
  | Integration                                :        6.855 s           6.860 s
  | Solution of K.-S. eqns.                    :        0.268 s           0.284 s
  | Grid partitioning                          :        0.755 s           0.759 s
  | Preloading free-atom quantities on grid    :        0.013 s           0.016 s
  | Free-atom superposition energy             :        0.073 s           0.074 s
  | Total energy evaluation                    :        0.001 s           0.005 s

  Partial memory accounting:
  | Current value for overall tracked memory usage on task 0  :           4.641 MB
  | Peak value for overall tracked memory usage on task 0     :          27.215 MB after allocating zora_vector2
  | Largest tracked array allocation on task 0 so far         :           7.683 MB  when allocating hamiltonian_shell
  Note:  These values currently only include a subset of arrays which are explicitly tracked.
  The "true" memory usage will be greater.
------------------------------------------------------------

------------------------------------------------------------
          Begin self-consistency iteration #    1

  Date     :  20210620, Time     :  164148.487
------------------------------------------------------------
  Evaluating new KS density.
  Integration grid: deviation in total charge (<rho> - N_e) =  -5.684342E-14
  Pulay mixing of updated and previous charge densities.

  Evaluating partitioned Hartree potential by multipole expansion.
  | Analytical far-field extrapolation by fixed multipoles:
  | Hartree multipole sum: apparent total charge =  -0.299821E-05
  Summing up the Hartree potential with load balancing.
  Time summed over all CPUs for potential: real work       28.593 s, elapsed       53.199 s
  | RMS charge density error from multipole expansion :   0.140601E-01

  Start compute_balanced_batch_distribution
  Done load balancing, time needed:      0.007 s
  Integrating Hamiltonian matrix: batch-based integration with load balancing
  Time summed over all CPUs for integration: real work      176.514 s, elapsed      198.911 s
  Time get_set_full_local_matrix_scalapack:     0.017812 s
  Start compute_balanced_batch_distribution
  Done load balancing, time needed:      0.008 s

  Updating Kohn-Sham eigenvalues and eigenvectors using ELSI and the ELPA eigensolver.
  Finished transformation to standard eigenproblem
  | Time :     0.019 s
  Starting ELPA eigensolver
  Finished solving standard eigenproblem
  | Time :     0.105 s
  Finished back-transformation of eigenvectors
  | Time :     0.004 s

  Obtaining occupation numbers and chemical potential using ELSI.
  | Chemical potential (Fermi level):    -5.82294938 eV
  Writing Kohn-Sham eigenvalues.

  State    Occupation    Eigenvalue [Ha]    Eigenvalue [eV]
      1       2.00000          -9.993893         -271.94765
      2       2.00000          -9.988988         -271.81420
      3       2.00000          -9.987518         -271.77420
      4       2.00000          -9.986102         -271.73565
      5       2.00000          -9.985793         -271.72726
      6       2.00000          -9.984906         -271.70312
      7       2.00000          -9.983752         -271.67170
      8       2.00000          -9.981825         -271.61927
      9       2.00000          -9.981505         -271.61056
     10       2.00000          -9.980897         -271.59403
     11       2.00000          -9.980406         -271.58067
     12       2.00000          -9.980137         -271.57335
     13       2.00000          -9.979672         -271.56068
     14       2.00000          -9.977853         -271.51119
     15       2.00000          -9.972665         -271.37003
     16       2.00000          -9.966549         -271.20359
     17       2.00000          -9.966104         -271.19148
     18       2.00000          -9.961897         -271.07701
     19       2.00000          -9.959835         -271.02090
     20       2.00000          -9.956708         -270.93581
     21       2.00000          -9.955199         -270.89474
     22       2.00000          -9.955085         -270.89165
     23       2.00000          -9.954959         -270.88823
     24       2.00000          -9.951262         -270.78763
     25       2.00000          -9.951142         -270.78435
     26       2.00000          -9.950537         -270.76788
     27       2.00000          -9.948163         -270.70330
     28       2.00000          -9.946627         -270.66149
     29       2.00000          -9.946253         -270.65133
     30       2.00000          -9.944732         -270.60993
     31       2.00000          -9.944712         -270.60937
     32       2.00000          -9.944143         -270.59389
     33       2.00000          -9.940321         -270.48989
     34       2.00000          -9.939956         -270.47996
     35       2.00000          -0.886302          -24.11749
     36       2.00000          -0.868603          -23.63589
     37       2.00000          -0.846918          -23.04582
     38       2.00000          -0.842278          -22.91954
     39       2.00000          -0.821722          -22.36020
     40       2.00000          -0.819406          -22.29716
     41       2.00000          -0.796070          -21.66218
     42       2.00000          -0.789103          -21.47258
     43       2.00000          -0.772664          -21.02525
     44       2.00000          -0.758331          -20.63523
     45       2.00000          -0.749547          -20.39622
     46       2.00000          -0.743988          -20.24495
     47       2.00000          -0.734503          -19.98684
     48       2.00000          -0.724713          -19.72045
     49       2.00000          -0.720505          -19.60595
     50       2.00000          -0.709867          -19.31646
     51       2.00000          -0.693333          -18.86656
     52       2.00000          -0.650453          -17.69974
     53       2.00000          -0.644961          -17.55029
     54       2.00000          -0.637775          -17.35474
     55       2.00000          -0.632461          -17.21015
     56       2.00000          -0.625187          -17.01221
     57       2.00000          -0.616431          -16.77394
     58       2.00000          -0.606286          -16.49789
     59       2.00000          -0.594837          -16.18634
     60       2.00000          -0.583520          -15.87839
     61       2.00000          -0.560176          -15.24315
     62       2.00000          -0.553275          -15.05538
     63       2.00000          -0.545185          -14.83523
     64       2.00000          -0.543802          -14.79759
     65       2.00000          -0.526539          -14.32785
     66       2.00000          -0.519993          -14.14973
     67       2.00000          -0.516472          -14.05392
     68       2.00000          -0.501506          -13.64668
     69       2.00000          -0.494624          -13.45940
     70       2.00000          -0.490857          -13.35689
     71       2.00000          -0.479654          -13.05204
     72       2.00000          -0.476247          -12.95933
     73       2.00000          -0.473025          -12.87166
     74       2.00000          -0.464279          -12.63367
     75       2.00000          -0.458002          -12.46288
     76       2.00000          -0.450933          -12.27051
     77       2.00000          -0.447158          -12.16780
     78       2.00000          -0.441572          -12.01579
     79       2.00000          -0.437484          -11.90455
     80       2.00000          -0.434783          -11.83104
     81       2.00000          -0.431908          -11.75282
     82       2.00000          -0.429112          -11.67673
     83       2.00000          -0.426517          -11.60611
     84       2.00000          -0.419145          -11.40552
     85       2.00000          -0.414897          -11.28992
     86       2.00000          -0.413050          -11.23966
     87       2.00000          -0.407756          -11.09559
     88       2.00000          -0.399709          -10.87663
     89       2.00000          -0.391753          -10.66013
     90       2.00000          -0.388716          -10.57749
     91       2.00000          -0.386002          -10.50366
     92       2.00000          -0.378653          -10.30368
     93       2.00000          -0.376481          -10.24457
     94       2.00000          -0.373971          -10.17628
     95       2.00000          -0.363479           -9.89076
     96       2.00000          -0.359875           -9.79269
     97       2.00000          -0.359003           -9.76897
     98       2.00000          -0.352884           -9.60245
     99       2.00000          -0.347593           -9.45849
    100       2.00000          -0.331613           -9.02365
    101       2.00000          -0.330251           -8.98658
    102       2.00000          -0.322274           -8.76952
    103       2.00000          -0.310232           -8.44184
    104       2.00000          -0.290462           -7.90386
    105       2.00000          -0.287926           -7.83486
    106       2.00000          -0.281765           -7.66722
    107       2.00000          -0.274049           -7.45726
    108       2.00000          -0.261754           -7.12269
    109       2.00000          -0.256273           -6.97356
    110       2.00000          -0.243535           -6.62692
    111       2.00000          -0.217494           -5.91830
    112       0.00000          -0.152216           -4.14201
    113       0.00000          -0.124562           -3.38952
    114       0.00000          -0.113998           -3.10206
    115       0.00000          -0.110128           -2.99674
    116       0.00000          -0.096909           -2.63703
    117       0.00000          -0.088041           -2.39571
    118       0.00000          -0.080480           -2.18998
    119       0.00000          -0.071344           -1.94136
    120       0.00000          -0.052819           -1.43726
    121       0.00000          -0.032622           -0.88769
    122       0.00000          -0.029978           -0.81574
    123       0.00000          -0.025654           -0.69807
    124       0.00000          -0.025334           -0.68936
    125       0.00000          -0.022684           -0.61727
    126       0.00000          -0.017393           -0.47330
    127       0.00000          -0.014917           -0.40590
    128       0.00000          -0.003565           -0.09701
    129       0.00000          -0.001712           -0.04658
    130       0.00000           0.006703            0.18239
    131       0.00000           0.012117            0.32972
    132       0.00000           0.013014            0.35412
    133       0.00000           0.017348            0.47207
    134       0.00000           0.024270            0.66042
    135       0.00000           0.026326            0.71636
    136       0.00000           0.033294            0.90598
    137       0.00000           0.037870            1.03049
    138       0.00000           0.046964            1.27795
    139       0.00000           0.051891            1.41204
    140       0.00000           0.056049            1.52518
    141       0.00000           0.059321            1.61420
    142       0.00000           0.064157            1.74580
    143       0.00000           0.067285            1.83091
    144       0.00000           0.069661            1.89558
    145       0.00000           0.075358            2.05058
    146       0.00000           0.079029            2.15049
    147       0.00000           0.082048            2.23263
    148       0.00000           0.088970            2.42099
    149       0.00000           0.089855            2.44507
    150       0.00000           0.092686            2.52212
    151       0.00000           0.096631            2.62948
    152       0.00000           0.101642            2.76581
    153       0.00000           0.102584            2.79144
    154       0.00000           0.105977            2.88378
    155       0.00000           0.109821            2.98838
    156       0.00000           0.112850            3.07081
    157       0.00000           0.115584            3.14520
    158       0.00000           0.116996            3.18361
    159       0.00000           0.119047            3.23944
    160       0.00000           0.121232            3.29888
    161       0.00000           0.123893            3.37129
    162       0.00000           0.129251            3.51709
    163       0.00000           0.130679            3.55596
    164       0.00000           0.134118            3.64953
    165       0.00000           0.135171            3.67819
    166       0.00000           0.137462            3.74053
    167       0.00000           0.138538            3.76982
    168       0.00000           0.140733            3.82955
    169       0.00000           0.144947            3.94420
    170       0.00000           0.148538            4.04192
    171       0.00000           0.149552            4.06953
    172       0.00000           0.150000            4.08171
    173       0.00000           0.151521            4.12308
    174       0.00000           0.155593            4.23390
    175       0.00000           0.158549            4.31434
    176       0.00000           0.162331            4.41726
    177       0.00000           0.163910            4.46022
    178       0.00000           0.167650            4.56199
    179       0.00000           0.168214            4.57732
    180       0.00000           0.170685            4.64458
    181       0.00000           0.172794            4.70197
    182       0.00000           0.176345            4.79859
    183       0.00000           0.178116            4.84677
    184       0.00000           0.183505            4.99342
    185       0.00000           0.186160            5.06566
    186       0.00000           0.187038            5.08955
    187       0.00000           0.191412            5.20859
    188       0.00000           0.193523            5.26603
    189       0.00000           0.199563            5.43040
    190       0.00000           0.201275            5.47698
    191       0.00000           0.201805            5.49138
    192       0.00000           0.204419            5.56253
    193       0.00000           0.204616            5.56788
    194       0.00000           0.207733            5.65270
    195       0.00000           0.211843            5.76455
    196       0.00000           0.214033            5.82413
    197       0.00000           0.215690            5.86922
    198       0.00000           0.218956            5.95808
    199       0.00000           0.223145            6.07208
[...]
     70       2.00000          -0.430105          -11.70375
     71       2.00000          -0.418429          -11.38604
     72       2.00000          -0.415020          -11.29327
     73       2.00000          -0.410732          -11.17659
     74       2.00000          -0.404320          -11.00212
     75       2.00000          -0.397414          -10.81418
     76       2.00000          -0.390803          -10.63430
     77       2.00000          -0.387002          -10.53085
     78       2.00000          -0.382961          -10.42090
     79       2.00000          -0.381449          -10.37975
     80       2.00000          -0.375569          -10.21974
     81       2.00000          -0.373664          -10.16792
     82       2.00000          -0.371530          -10.10985
     83       2.00000          -0.367872          -10.01031
     84       2.00000          -0.363199           -9.88316
     85       2.00000          -0.357715           -9.73393
     86       2.00000          -0.353481           -9.61870
     87       2.00000          -0.348014           -9.46996
     88       2.00000          -0.345084           -9.39021
     89       2.00000          -0.340103           -9.25468
     90       2.00000          -0.336271           -9.15039
     91       2.00000          -0.327213           -8.90391
     92       2.00000          -0.323818           -8.81154
     93       2.00000          -0.317218           -8.63193
     94       2.00000          -0.316579           -8.61454
     95       2.00000          -0.313947           -8.54293
     96       2.00000          -0.312375           -8.50014
     97       2.00000          -0.300611           -8.18004
     98       2.00000          -0.293175           -7.97771
     99       2.00000          -0.289528           -7.87845
    100       2.00000          -0.283996           -7.72791
    101       2.00000          -0.278481           -7.57785
    102       2.00000          -0.268600           -7.30897
    103       2.00000          -0.266391           -7.24888
    104       2.00000          -0.248046           -6.74967
    105       2.00000          -0.246466           -6.70667
    106       2.00000          -0.237901           -6.47360
    107       2.00000          -0.230993           -6.28565
    108       2.00000          -0.219825           -5.98174
    109       2.00000          -0.213259           -5.80307
    110       2.00000          -0.200598           -5.45854
    111       2.00000          -0.172222           -4.68639
    112       0.00000          -0.107023           -2.91225
    113       0.00000          -0.081358           -2.21387
    114       0.00000          -0.070587           -1.92077
    115       0.00000          -0.066356           -1.80563
    116       0.00000          -0.054103           -1.47221
    117       0.00000          -0.044118           -1.20051
    118       0.00000          -0.037478           -1.01982
    119       0.00000          -0.027380           -0.74505
    120       0.00000          -0.009287           -0.25271
    121       0.00000          -0.007471           -0.20330
    122       0.00000          -0.003305           -0.08995
    123       0.00000          -0.002394           -0.06515
    124       0.00000           0.004574            0.12447
    125       0.00000           0.007170            0.19510
    126       0.00000           0.012205            0.33210
    127       0.00000           0.018243            0.49640
    128       0.00000           0.019478            0.53004
    129       0.00000           0.020749            0.56462
    130       0.00000           0.033163            0.90240
    131       0.00000           0.033827            0.92048
    132       0.00000           0.043007            1.17029
    133       0.00000           0.046632            1.26893
    134       0.00000           0.051967            1.41411
    135       0.00000           0.055171            1.50129
    136       0.00000           0.061900            1.68439
    137       0.00000           0.065753            1.78923
    138       0.00000           0.070019            1.90530
    139       0.00000           0.077586            2.11122
    140       0.00000           0.082202            2.23682
    141       0.00000           0.089394            2.43254
    142       0.00000           0.091503            2.48993
    143       0.00000           0.095834            2.60778
    144       0.00000           0.100450            2.73338
    145       0.00000           0.103470            2.81557
    146       0.00000           0.105854            2.88042
    147       0.00000           0.110719            3.01281
    148       0.00000           0.114871            3.12581
    149       0.00000           0.116358            3.16625
    150       0.00000           0.118180            3.21584
    151       0.00000           0.125720            3.42102
    152       0.00000           0.130583            3.55335
    153       0.00000           0.132726            3.61167
    154       0.00000           0.133947            3.64488
    155       0.00000           0.139486            3.79560
    156       0.00000           0.144038            3.91947
    157       0.00000           0.145302            3.95388
    158       0.00000           0.147447            4.01222
    159       0.00000           0.151827            4.13142
    160       0.00000           0.152855            4.15940
    161       0.00000           0.156959            4.27108
    162       0.00000           0.159969            4.35297
    163       0.00000           0.163081            4.43766
    164       0.00000           0.167241            4.55087
    165       0.00000           0.169325            4.60756
    166       0.00000           0.170440            4.63790
    167       0.00000           0.174003            4.73487
    168       0.00000           0.175521            4.77616
    169       0.00000           0.178883            4.86766
    170       0.00000           0.181833            4.94794
    171       0.00000           0.184708            5.02617
    172       0.00000           0.185680            5.05261
    173       0.00000           0.188015            5.11616
    174       0.00000           0.189095            5.14555
    175       0.00000           0.190578            5.18590
    176       0.00000           0.191439            5.20932
    177       0.00000           0.195582            5.32207
    178       0.00000           0.199127            5.41852
    179       0.00000           0.202820            5.51901
    180       0.00000           0.204528            5.56550
    181       0.00000           0.208459            5.67246
    182       0.00000           0.210412            5.72559
    183       0.00000           0.213989            5.82295
    184       0.00000           0.215977            5.87704
    185       0.00000           0.221564            6.02906
    186       0.00000           0.223573            6.08374
    187       0.00000           0.224660            6.11331
    188       0.00000           0.225421            6.13403
    189       0.00000           0.230851            6.28177
    190       0.00000           0.231960            6.31196
    191       0.00000           0.234486            6.38069
    192       0.00000           0.235218            6.40060
    193       0.00000           0.237957            6.47515
    194       0.00000           0.240990            6.55767
    195       0.00000           0.245100            6.66950
    196       0.00000           0.248467            6.76113
    197       0.00000           0.250040            6.80394
    198       0.00000           0.251251            6.83688
    199       0.00000           0.255379            6.94921
    200       0.00000           0.262140            7.13319
    201       0.00000           0.264615            7.20053
    202       0.00000           0.265864            7.23454
    203       0.00000           0.267566            7.28085
    204       0.00000           0.270850            7.37020
    205       0.00000           0.271834            7.39699
    206       0.00000           0.274659            7.47385
    207       0.00000           0.277035            7.53852
    208       0.00000           0.277720            7.55716
    209       0.00000           0.280893            7.64348
    210       0.00000           0.282405            7.68464
    211       0.00000           0.289433            7.87588
    212       0.00000           0.292408            7.95682
    213       0.00000           0.292862            7.96918
    214       0.00000           0.297682            8.10033
    215       0.00000           0.300454            8.17577
    216       0.00000           0.303524            8.25931
    217       0.00000           0.307619            8.37074
    218       0.00000           0.312072            8.49190
    219       0.00000           0.315554            8.58667
    220       0.00000           0.320410            8.71879
    221       0.00000           0.323489            8.80258
    222       0.00000           0.325028            8.84446
    223       0.00000           0.326728            8.89073
    224       0.00000           0.329372            8.96267
    225       0.00000           0.334221            9.09461
    226       0.00000           0.336881            9.16699
    227       0.00000           0.341944            9.30476
    228       0.00000           0.344019            9.36125
    229       0.00000           0.346903            9.43971
    230       0.00000           0.349840            9.51963
    231       0.00000           0.357040            9.71556
    232       0.00000           0.360110            9.79910
    233       0.00000           0.362460            9.86305
    234       0.00000           0.368371           10.02389
    235       0.00000           0.369553           10.05604
    236       0.00000           0.371744           10.11566
    237       0.00000           0.374719           10.19662
    238       0.00000           0.377405           10.26972
    239       0.00000           0.379013           10.31347
    240       0.00000           0.383370           10.43204

  Highest occupied state (VBM) at     -4.68638669 eV
  | Occupation number:      2.00000000

  Lowest unoccupied state (CBM) at    -2.91224964 eV
  | Occupation number:      0.00000000

  Overall HOMO-LUMO gap:      1.77413705 eV.

  Total energy components:
  | Sum of eigenvalues            :        -743.91118278 Ha      -20242.85322847 eV
  | XC energy correction          :        -190.01693744 Ha       -5170.62394624 eV
  | XC potential correction       :         244.10237755 Ha        6642.36365299 eV
  | Free-atom electrostatic energy:        -569.71121269 Ha      -15502.63086257 eV
  | Hartree energy correction     :         -46.45180232 Ha       -1264.01785363 eV
  | Entropy correction            :           0.00000000 Ha           0.00000000 eV
  | ---------------------------
  | Total energy                  :       -1305.98875768 Ha      -35537.76223793 eV
  | Total energy, T -> 0          :       -1305.98875768 Ha      -35537.76223793 eV  <-- do not rely on this value for anything but (periodic) metals
  | Electronic free energy        :       -1305.98875768 Ha      -35537.76223793 eV

  Derived energy quantities:
  | Kinetic energy                :        1302.20872729 Ha       35434.90237760 eV
  | Electrostatic energy          :       -2418.18054753 Ha      -65802.04066928 eV
  | Energy correction for multipole
  | error in Hartree potential    :          -0.16033694 Ha          -4.36299026 eV
  | Sum of eigenvalues per atom                           :        -389.28563901 eV
  | Total energy (T->0) per atom                          :        -683.41850458 eV  <-- do not rely on this value for anything but (periodic) metals
  | Electronic free energy per atom                       :        -683.41850458 eV
  End evaluation of scaled ZORA corrections.
  | Time for scaled ZORA corrections           :        6.498 s           6.507 s
------------------------------------------------------------

  Energy and forces in a compact form:
  | Total energy uncorrected      :         -0.355377622379256E+05 eV
  | Total energy corrected        :         -0.355377622379256E+05 eV  <-- do not rely on this value for anything but (periodic) metals
  | Electronic free energy        :         -0.355377622379256E+05 eV

  ------------------------------------ 
  Start decomposition of the XC Energy 
  ------------------------------------ 
  X and C from original XC functional choice 
  Hartree-Fock Energy :          0.000000000 Ha              0.000000000 eV
  X Energy            :       -182.539509678 Ha          -4967.152784285 eV
  C Energy            :         -7.477427764 Ha           -203.471161956 eV
  Total XC Energy     :       -190.016937442 Ha          -5170.623946241 eV
  ------------------------------------ 
  LDA X and C from self-consistent density 
  X Energy LDA        :       -165.354764485 Ha          -4499.532075300 eV
  C Energy LDA        :        -14.377565646 Ha           -391.233466955 eV
  ------------------------------------ 
  End decomposition of the XC Energy 
  ------------------------------------ 

------------------------------------------------------------

------------------------------------------------------------------------------
  Final output of selected total energy values:

  The following output summarizes some interesting total energy values
  at the end of a run (AFTER all relaxation, molecular dynamics, etc.).

  | Total energy of the DFT / Hartree-Fock s.c.f. calculation      :         -35537.762237926 eV
  | Final zero-broadening corrected energy (caution - metals only) :         -35537.762237926 eV
  | For reference only, the value of 1 Hartree used in FHI-aims is :             27.211384500 eV

  Before relying on these values, please be sure to understand exactly which
  total energy value is referred to by a given number. Different objects may
  all carry the same name 'total energy'. Definitions:

  Total energy of the DFT / Hartree-Fock s.c.f. calculation:
  | Note that this energy does not include ANY quantities calculated after the
  | s.c.f. cycle, in particular not ANY RPA, MP2, etc. many-body perturbation terms.
  | Scalar relativistic effects have been included in the 'scaled ZORA' approximation.

  Final zero-broadening corrected energy:
  | For metallic systems only, a broadening of the occupation numbers at the Fermi
  | level can be extrapolated back to zero broadening by an electron-gas inspired
  | formula. For all systems that are not real metals, this value can be
  | meaningless and should be avoided.

------------------------------------------------------------------------------
  Methods described in the following list of references were used in this FHI-aims run.
  If you publish the results, please make sure to cite these reference if they apply.
  FHI-aims is an academic code, and for our developers (often, Ph.D. students
  and postdocs), scientific credit in the community is essential.
  Thank you for helping us!

  For any use of FHI-aims, please cite:

    Volker Blum, Ralf Gehrke, Felix Hanke, Paula Havu, Ville Havu,
    Xinguo Ren, Karsten Reuter, and Matthias Scheffler
    'Ab initio molecular simulations with numeric atom-centered orbitals'
    Computer Physics Communications 180, 2175-2196 (2009)
    http://dx.doi.org/10.1016/j.cpc.2009.06.022


  The scalable eigensolver library ELPA was used in your run.
  ELPA is essential especially for large systems on hundreds or thousands of CPUs.
  For ELPA, please cite:

    Andreas Marek, Volker Blum, Rainer Johanni, Ville Havu, Bruno Lang,
    Thomas Auckenthaler, Alexander Heinecke, Hans-Joachim Bungartz, and Hermann Lederer,
    'The ELPA Library - Scalable Parallel Eigenvalue Solutions
    for Electronic Structure Theory and Computational Science'
    The Journal of Physics: Condensed Matter 26, 213201 (2014).
    http://dx.doi.org/10.1088/0953-8984/26/21/213201


  The ELSI infrastructure was used in your run to solve the Kohn-Sham electronic structure.
  Please check out http://elsi-interchange.org to learn more.
  If scalability is important for your project, please acknowledge ELSI by citing:

    V. W-z. Yu, F. Corsetti, A. Garcia, W. P. Huhn, M. Jacquelin, W. Jia,
    B. Lange, L. Lin, J. Lu, W. Mi, A. Seifitokaldani, A. Vazquez-Mayagoitia,
    C. Yang, H. Yang, and V. Blum
    'ELSI: A unified software interface for Kohn-Sham electronic structure solvers'
    Computer Physics Communications 222, 267-285 (2018).
    http://dx.doi.org/10.1016/j.cpc.2017.09.007


  For the real-space grid partitioning and parallelization used in this calculation, please cite:

    Ville Havu, Volker Blum, Paula Havu, and Matthias Scheffler,
    'Efficient O(N) integration for all-electron electronic structure calculation'
    'using numerically tabulated basis functions'
    Journal of Computational Physics 228, 8367-8379 (2009).
    http://dx.doi.org/10.1016/j.jcp.2009.08.008

  Of course, there are many other important community references, e.g., those cited in the
  above references. Our list is limited to references that describe implementations in the
  FHI-aims code. The reason is purely practical (length of this list) - please credit others as well.

------------------------------------------------------------
          Leaving FHI-aims.
          Date     :  20210620, Time     :  164338.141

          Computational steps:
          | Number of self-consistency cycles          :           18
          | Number of SCF (re)initializations          :            1

          Detailed time accounting                     :  max(cpu_time)    wall_clock(cpu1)
          | Total time                                 :      118.704 s         118.884 s
          | Preparation time                           :        0.201 s           0.201 s
          | Boundary condition initalization           :        0.000 s           0.003 s
          | Grid partitioning                          :        0.755 s           0.759 s
          | Preloading free-atom quantities on grid    :        0.013 s           0.016 s
          | Free-atom superposition energy             :        0.073 s           0.074 s
          | Total time for integrations                :       67.560 s          67.565 s
          | Total time for solution of K.-S. equations :        3.435 s           3.458 s
          | Total time for density update              :       27.820 s          27.769 s
          | Total time for mixing                      :        0.154 s           0.159 s
          | Total time for Hartree multipole update    :        0.172 s           0.177 s
          | Total time for Hartree multipole sum       :       10.927 s          10.930 s
          | Total time for total energy evaluation     :        0.010 s           0.037 s
          | Total time for scaled ZORA corrections     :        6.498 s           6.507 s

          Partial memory accounting:
          | Residual value for overall tracked memory usage across tasks :     0.000000 MB (should be 0.000000 MB)
          | Peak values for overall tracked memory usage (after allocating zora_vector2):
          |   Minimum:       27.564 MB (on task  1)
          |   Maximum:       35.905 MB (on task 31)
          |   Average:       31.642 MB
          | Largest tracked array allocation (hamiltonian_shell):
          |   Minimum:        7.683 MB (on task  1)
          |   Maximum:        7.683 MB (on task  1)
          |   Average:        7.683 MB
          Note:  These values currently only include a subset of arrays which are explicitly tracked.
          The "true" memory usage will be greater.

          Have a nice day.
------------------------------------------------------------
