  MPI-parallelism will be employed.
------------------------------------------------------------
          Invoking FHI-aims ...
          Version 180607
          Git rev. (modified): 6724847 Fix JSON memory corruption in scf_solver
          Compiled on 2018/06/27 at 16:00:31 on host coe.psc.edu.

          When using FHI-aims, please cite the following reference:

          Volker Blum, Ralf Gehrke, Felix Hanke, Paula Havu,
          Ville Havu, Xinguo Ren, Karsten Reuter, and Matthias Scheffler,
          'Ab Initio Molecular Simulations with Numeric Atom-Centered Orbitals',
          Computer Physics Communications 180, 2175-2196 (2009)

          For any questions about FHI-aims, please visit the aimsclub website
          with its forums and wiki. Contributions to both the forums and the
          wiki are warmly encouraged - they are for you, and everyone is welcome there.

------------------------------------------------------------



  Date     :  20210620, Time     :  163836.293
  Time zero on CPU 1             :   0.311260000000000E+00  s.
  Internal wall clock time zero  :           393439116.293  s.

  FHI-aims created a unique identifier for this run for later identification
  aims_uuid : B6571927-371A-4A4F-AD09-75B69A389510

  Using       56 parallel tasks.
  Task        0 on host d021 reporting.
  Task        1 on host d021 reporting.
  Task        2 on host d021 reporting.
  Task        3 on host d021 reporting.
  Task        4 on host d021 reporting.
  Task        5 on host d021 reporting.
  Task        6 on host d021 reporting.
  Task        7 on host d021 reporting.
  Task        8 on host d021 reporting.
  Task        9 on host d021 reporting.
  Task       10 on host d021 reporting.
  Task       11 on host d021 reporting.
  Task       12 on host d021 reporting.
  Task       13 on host d021 reporting.
  Task       14 on host d021 reporting.
  Task       15 on host d021 reporting.
  Task       16 on host d021 reporting.
  Task       17 on host d021 reporting.
  Task       18 on host d021 reporting.
  Task       19 on host d021 reporting.
  Task       20 on host d021 reporting.
  Task       21 on host d021 reporting.
  Task       22 on host d021 reporting.
  Task       23 on host d021 reporting.
  Task       24 on host d021 reporting.
  Task       25 on host d021 reporting.
  Task       26 on host d021 reporting.
  Task       27 on host d021 reporting.
  Task       28 on host d021 reporting.
  Task       29 on host d021 reporting.
  Task       30 on host d021 reporting.
  Task       31 on host d021 reporting.
  Task       32 on host d021 reporting.
  Task       33 on host d021 reporting.
  Task       34 on host d021 reporting.
  Task       35 on host d021 reporting.
  Task       36 on host d021 reporting.
  Task       37 on host d021 reporting.
  Task       38 on host d021 reporting.
  Task       39 on host d021 reporting.
  Task       40 on host d021 reporting.
  Task       41 on host d021 reporting.
  Task       42 on host d021 reporting.
  Task       43 on host d021 reporting.
  Task       44 on host d021 reporting.
  Task       45 on host d021 reporting.
  Task       46 on host d021 reporting.
  Task       47 on host d021 reporting.
  Task       48 on host d021 reporting.
  Task       49 on host d021 reporting.
  Task       50 on host d021 reporting.
  Task       51 on host d021 reporting.
  Task       52 on host d021 reporting.
  Task       53 on host d021 reporting.
  Task       54 on host d021 reporting.
  Task       55 on host d021 reporting.

  Performing system and environment tests:
  *** Environment variable OMP_NUM_THREADS is not set
  *** For performance reasons you might want to set it to 1
  | Stacksize not measured: no C compiler
  | Checking for scalapack...
  | Testing pdtran()...
  | All pdtran() tests passed.

  Obtaining array dimensions for all initial allocations:
  
  -----------------------------------------------------------------------
  Parsing control.in (first pass over file, find array dimensions only).
  The contents of control.in will be repeated verbatim below
  unless switched off by setting 'verbatim_writeout .false.' .
  in the first line of control.in .
  -----------------------------------------------------------------------
  
  #===============================================================================
  # FHI-aims file: ./Runs/es/control.in
  # Created using the Atomic Simulation Environment (ASE)
  # Mon Jan 13 16:04:38 2020
  #===============================================================================
  xc                                 pbe
  relativistic                       zora scalar 1e-12
  occupation_type                    gaussian 0.0001
  load_balancing                     .true.
  KS_method                          scalapack_fast
  mixer                              pulay
  n_max_pulay                        5
  charge_mix_param                   0.4
  sc_accuracy_etot                   1e-6
  sc_accuracy_eev                    1e-4
  sc_accuracy_rho                    1e-6
  sc_iter_limit                      100
  prodbas_threshold                  1e-4
  basis_threshold                    1e-5
  override_illconditioning           .true.
  use_logsbt                         .true.
  spin                               none
  charge                             0
  #===============================================================================
  
  ################################################################################
  #
  #  FHI-aims code project
  # Volker Blum, Fritz Haber Institute Berlin, 2009
  #
  #  Suggested "tight" defaults for H atom (to be pasted into control.in file)
  #
  ################################################################################
    species        H
  #     global species definitions
      nucleus             1
      mass                1.00794
  #
      l_hartree           6
  #
      cut_pot             4.0  2.0  1.0
      basis_dep_cutoff    1e-4
  #
      radial_base         24 7.0
      radial_multiplier   2
      angular_grids       specified
        division   0.1930   50
        division   0.3175  110
        division   0.4293  194
        division   0.5066  302
        division   0.5626  434
  #      division   0.5922  590
  #      division   0.6227  974
  #      division   0.6868 1202
  #      outer_grid  770
        outer_grid  434
  ################################################################################
  #
  #  Definition of "minimal" basis
  #
  ################################################################################
  #     valence basis states
      valence      1  s   1.
  #     ion occupancy
      ion_occ      1  s   0.5
  ################################################################################
  #
  #  Suggested additional basis functions. For production calculations,
  #  uncomment them one after another (the most important basis functions are
  #  listed first).
  #
  #  Basis constructed for dimers: 0.5 A, 0.7 A, 1.0 A, 1.5 A, 2.5 A
  #
  ################################################################################
  #  "First tier" - improvements: -1014.90 meV to -62.69 meV
       hydro 2 s 2.1
       hydro 2 p 3.5
  #  "Second tier" - improvements: -12.89 meV to -1.83 meV
       hydro 1 s 0.85
       hydro 2 p 3.7
       hydro 2 s 1.2
       hydro 3 d 7
  #  "Third tier" - improvements: -0.25 meV to -0.12 meV
  #     hydro 4 f 11.2
  #     hydro 3 p 4.8
  #     hydro 4 d 9
  #     hydro 3 s 3.2
  ################################################################################
  #
  # For methods that use the localized form of the "resolution of identity" for
  # the two-electron Coulomb operator (RI_method LVL), particularly Hartree-Fock and
  # hybrid density functional calculations, the highest accuracy can be obtained by
  # uncommenting the line beginning with "for_aux"  below, thus adding an extra g radial
  # function to the construction of the product basis set for the expansion.
  # See Ref. New J. Phys. 17, 093020 (2015) for more information, particularly Figs. 1 and 6.
  #
  ################################################################################
  #
  # for_aux hydro 5 g 6.0
  ################################################################################
  #
  #  FHI-aims code project
  # Volker Blum, Fritz Haber Institute Berlin, 2009
  #
  #  Suggested "tight" defaults for C atom (to be pasted into control.in file)
  #
  ################################################################################
    species        C
  #     global species definitions
      nucleus             6
      mass                12.0107
  #
      l_hartree           6
  #
      cut_pot             4.0  2.0  1.0
      basis_dep_cutoff    1e-4
  #
      radial_base         34 7.0
      radial_multiplier   2
      angular_grids specified
        division   0.2187   50
        division   0.4416  110
        division   0.6335  194
        division   0.7727  302
        division   0.8772  434
  #      division   0.9334  590
  #      division   0.9924  770
  #      division   1.0230  974
  #      division   1.5020 1202
  #     outer_grid  974
        outer_grid  434
  ################################################################################
  #
  #  Definition of "minimal" basis
  #
  ################################################################################
  #     valence basis states
      valence      2  s   2.
      valence      2  p   2.
  #     ion occupancy
      ion_occ      2  s   1.
      ion_occ      2  p   1.
  ################################################################################
  #
  #  Suggested additional basis functions. For production calculations,
  #  uncomment them one after another (the most important basis functions are
  #  listed first).
  #
  #  Constructed for dimers: 1.0 A, 1.25 A, 1.5 A, 2.0 A, 3.0 A
  #
  ################################################################################
  #  "First tier" - improvements: -1214.57 meV to -155.61 meV
       hydro 2 p 1.7
       hydro 3 d 6
       hydro 2 s 4.9
  #  "Second tier" - improvements: -67.75 meV to -5.23 meV
       hydro 4 f 9.8
       hydro 3 p 5.2
       hydro 3 s 4.3
       hydro 5 g 14.4
       hydro 3 d 6.2
  #  "Third tier" - improvements: -2.43 meV to -0.60 meV
  #     hydro 2 p 5.6
  #     hydro 2 s 1.4
  #     hydro 3 d 4.9
  #     hydro 4 f 11.2
  #  "Fourth tier" - improvements: -0.39 meV to -0.18 meV
  #     hydro 2 p 2.1
  #     hydro 5 g 16.4
  #     hydro 4 d 13.2
  #     hydro 3 s 13.6
  #     hydro 4 f 17.6
  #  Further basis functions - improvements: -0.08 meV and below
  #     hydro 3 s 2
  #     hydro 3 p 6
  #     hydro 4 d 20
  ################################################################################
  #
  # For methods that use the localized form of the "resolution of identity" for
  # the two-electron Coulomb operator (RI_method LVL), particularly Hartree-Fock and
  # hybrid density functional calculations, the highest accuracy can be obtained by
  # uncommenting the line beginning with "for_aux"  below, thus adding an extra g radial
  # function to the construction of the product basis set for the expansion.
  # See Ref. New J. Phys. 17, 093020 (2015) for more information, particularly Figs. 1 and 6.
  #
  ################################################################################
  #
  # for_aux hydro 5 g 6.0
  
  -----------------------------------------------------------------------
  Completed first pass over input file control.in .
  -----------------------------------------------------------------------
  
  
  -----------------------------------------------------------------------
  Parsing geometry.in (first pass over file, find array dimensions only).
  The contents of geometry.in will be repeated verbatim below
  unless switched off by setting 'verbatim_writeout .false.' .
  in the first line of geometry.in .
  -----------------------------------------------------------------------
  
  #=======================================================
  # FHI-aims file: geometry.in
  # Created using the Atomic Simulation Environment (ASE)
  # Sun Jun 20 15:47:01 2021
  #=======================================================
  atom 48.7465059999999966 30.0972469999999994 26.4299050000000015 H
  atom 47.9009209999999968 29.5242189999999987 26.8009589999999989 C
  atom 46.6228040000000021 29.8551180000000009 26.3601789999999987 C
  atom 48.0967010000000030 28.4751429999999992 27.7091649999999987 C
  atom 45.5298990000000003 29.1616889999999991 26.7954079999999983 C
  atom 46.5007050000000035 30.6757629999999999 25.6536000000000008 H
  atom 46.9703680000000006 27.7680259999999990 28.1754810000000013 C
  atom 49.4339590000000015 28.1006639999999983 28.1910249999999998 C
  atom 44.5319750000000028 29.4248340000000006 26.4453379999999996 H
  atom 45.6702069999999978 28.1040020000000013 27.6958419999999990 C
  atom 47.1084469999999982 26.6907250000000005 29.1192160000000015 C
  atom 49.5720549999999989 27.0633020000000002 29.1347600000000000 C
  atom 50.5943740000000020 28.7428579999999982 27.7280400000000000 C
  atom 44.5516220000000018 27.3473040000000012 28.1488340000000008 C
  atom 45.9672890000000010 25.9671850000000006 29.5522239999999989 C
  atom 48.3879469999999969 26.3324439999999989 29.6166200000000011 C
  atom 50.8608090000000033 26.7486010000000007 29.5910830000000011 C
  atom 50.5067110000000028 29.5458409999999994 26.9969229999999989 H
  atom 51.8369610000000023 28.3980400000000017 28.1765909999999984 C
  atom 43.5744359999999986 27.5958530000000017 27.7317040000000006 H
  atom 44.6810830000000010 26.3303380000000011 29.0148499999999991 C
  atom 46.1114510000000024 24.9195400000000014 30.4570989999999995 C
  atom 48.4761450000000025 25.2778360000000006 30.5226049999999987 C
  atom 50.9952329999999989 25.9623810000000006 30.3297500000000007 H
  atom 51.9733769999999993 27.3926249999999989 29.1158849999999987 C
  atom 52.7147709999999989 28.9268900000000002 27.8058699999999988 H
  atom 43.8156419999999969 25.7328030000000005 29.3035220000000010 H
  atom 45.2271560000000008 24.3585439999999984 30.7638679999999987 H
  atom 47.3556900000000027 24.5876720000000013 30.9478410000000004 C
  atom 49.4453719999999990 24.9712470000000017 30.9078710000000001 H
  atom 52.9558729999999969 27.1188429999999983 29.4969320000000010 H
  atom 47.4753749999999997 23.7647919999999999 31.6517559999999989 H
  
  -----------------------------------------------------------------------
  Completed first pass over input file geometry.in .
  -----------------------------------------------------------------------
  

  Basic array size parameters:
  | Number of species                 :        2
  | Number of atoms                   :       32
  | Max. basis fn. angular momentum   :        4
  | Max. atomic/ionic basis occupied n:        2
  | Max. number of basis fn. types    :        2
  | Max. radial fns per species/type  :        8
  | Max. logarithmic grid size        :     1277
  | Max. radial integration grid size :       69
  | Max. angular integration grid size:      434
  | Max. angular grid division number :        8
  | Radial grid for Hartree potential :     1277
  | Number of spin channels           :        1

------------------------------------------------------------
          Reading file control.in.
------------------------------------------------------------
  XC: Using PBE gradient-corrected functionals.
  Scalar relativistic treatment of kinetic energy: ZORA.
  Threshold value for ZORA:   0.100000E-11
  Occupation type: Gaussian broadening, width =   0.100000E-03 eV.
  Since 'load_balancing .true.' is present in control.in, automatically turning on 'use_local_index .true.'.
  Using load balancing for integrations.
  Kohn-Sham electronic structure solved by the ELSI library.
  Using pulay charge density mixing.
  Pulay mixing - number of memorized iterations:    5
  Charge density mixing - mixing parameter:     0.4000
  Convergence accuracy of total energy:  0.1000E-05
  Convergence accuracy of sum of eigenvalues:  0.1000E-03
  Convergence accuracy of self-consistent charge density:  0.1000E-05
  Maximum number of s.-c. iterations  :   100
  * Ignoring prodbas_threshold
  Threshold for basis singularities:  0.1000E-04
  override_illconditioning: Explicitly overriding any built-in checks for an ill-conditioned overlap matrix.
  *** WARNING: If you use this flag, you should really know what you are doing.
  *** DO NOT keep this flag set by default in all your control.in files.
  Using 1D integrations for auxiliary 2-center integrals.
  Spin treatment: No spin polarisation.
  Charge =   0.000000E+00: Neutral system requested explicitly.
 
  Reading configuration options for species H                   .
  | Found nuclear charge :   1.0000
  | Found atomic mass :    1.00794000000000      amu
  | Found l_max for Hartree potential  :   6
  | Found cutoff potl. onset [A], width [A], scale factor :    4.00000    2.00000    1.00000
  | Threshold for basis-dependent cutoff potential is   0.100000E-03
  | Found data for basic radial integration grid :    24 points, outermost radius =    7.000 A
  | Found multiplier for basic radial grid :   2
  | Found angular grid specification: user-specified.
  | Specified grid contains     6 separate shells.
  | Check grid settings after all constraints further below.
  | Found free-atom valence shell :  1 s   1.000
  | No ionic wave fns used. Skipping ion_occ.
  | Found hydrogenic basis function :  2 s   2.100
  | Found hydrogenic basis function :  2 p   3.500
  | Found hydrogenic basis function :  1 s   0.850
  | Found hydrogenic basis function :  2 p   3.700
  | Found hydrogenic basis function :  2 s   1.200
  | Found hydrogenic basis function :  3 d   7.000
  Species H                   : Missing cutoff potential type.
  Defaulting to exp(1/x)/(1-x)^2 type cutoff potential.
  Species H : No 'logarithmic' tag. Using default grid for free atom:
  | Default logarithmic grid data [bohr] : 0.1000E-03 0.1000E+03 0.1012E+01
  Species H : On-site basis accuracy parameter (for Gram-Schmidt orthonormalisation) not specified.
  Using default value basis_acc =  0.1000000E-03.
  Species H                   : Using default innermost maximum threshold i_radial=  2 for radial functions.
  Species H                   : Default cutoff onset for free atom density etc. : 0.40000000E+01 AA.
  Species H                   : Basic radial grid will be enhanced according to radial_multiplier =   2, to contain    49 grid points.
 
  Reading configuration options for species C                   .
  | Found nuclear charge :   6.0000
  | Found atomic mass :    12.0107000000000      amu
  | Found l_max for Hartree potential  :   6
  | Found cutoff potl. onset [A], width [A], scale factor :    4.00000    2.00000    1.00000
  | Threshold for basis-dependent cutoff potential is   0.100000E-03
  | Found data for basic radial integration grid :    34 points, outermost radius =    7.000 A
  | Found multiplier for basic radial grid :   2
  | Found angular grid specification: user-specified.
  | Specified grid contains     6 separate shells.
  | Check grid settings after all constraints further below.
  | Found free-atom valence shell :  2 s   2.000
  | Found free-atom valence shell :  2 p   2.000
  | No ionic wave fns used. Skipping ion_occ.
  | No ionic wave fns used. Skipping ion_occ.
  | Found hydrogenic basis function :  2 p   1.700
  | Found hydrogenic basis function :  3 d   6.000
  | Found hydrogenic basis function :  2 s   4.900
  | Found hydrogenic basis function :  4 f   9.800
  | Found hydrogenic basis function :  3 p   5.200
  | Found hydrogenic basis function :  3 s   4.300
  | Found hydrogenic basis function :  5 g  14.400
  | Found hydrogenic basis function :  3 d   6.200
  Species C                   : Missing cutoff potential type.
  Defaulting to exp(1/x)/(1-x)^2 type cutoff potential.
  Species C : No 'logarithmic' tag. Using default grid for free atom:
  | Default logarithmic grid data [bohr] : 0.1000E-03 0.1000E+03 0.1012E+01
  Species C : On-site basis accuracy parameter (for Gram-Schmidt orthonormalisation) not specified.
  Using default value basis_acc =  0.1000000E-03.
  Species C                   : Using default innermost maximum threshold i_radial=  2 for radial functions.
  Species C                   : Default cutoff onset for free atom density etc. : 0.40000000E+01 AA.
  Species C                   : Basic radial grid will be enhanced according to radial_multiplier =   2, to contain    69 grid points.
 
  Finished reading input file 'control.in'. Consistency checks are next.
 
  MPI_IN_PLACE appears to work with this MPI implementation.
  | Keeping use_mpi_in_place .true. (see manual).
  Target number of points in a grid batch is not set. Defaulting to  100
  Method for grid partitioning is not set. Defaulting to parallel hash+maxmin partitioning.
  Batch size limit is not set. Defaulting to    200
  By default, will store active basis functions for each batch.
  If in need of memory, prune_basis_once .false. can be used to disable this option.
  communication_type for Hartree potential was not specified.
  Defaulting to calc_hartree .
  Pulay mixer: Number of initial linear mixing iterations not set.
  Defaulting to    0 iterations.
  Work space size for distributed Hartree potential not set.
  Defaulting to   0.200000E+03 MB.
  Algorithm-dependent basis array size parameters:
  | n_max_pulay                         :        5
  Presetting      1001 iterations before the initial mixing cycle
  is restarted anyway using the sc_init_iter criterion / keyword.
  Presetting a factor      1.000 between actual scf density residual
  and density convergence criterion sc_accuracy_rho below which sc_init_iter
  takes no effect.
  Calculation of forces was not defined in control.in. No forces will be calculated.
  Geometry relaxation not requested: no relaxation will be performed.
  No accuracy limit for integral partition fn. given. Defaulting to  0.1000E-14.
  No threshold value for u(r) in integrations given. Defaulting to  0.1000E-05.
  No accuracy for occupation numbers given. Defaulting to  0.1000E-12.
  No threshold value for occupation numbers given. Defaulting to  0.0000E+00.
  No accuracy for fermi level given. Defaulting to  0.1000E-19.
  Maximum # of iterations to find E_F not set. Defaulting to  200.
  Will not use alltoall communication since running on < 1024 CPUs.
  partition_type (choice of integration weights) for integrals was not specified.
  | Using a version of the partition function of Stratmann and coworkers ('stratmann_sparse').
  | At each grid point, the set of atoms used to build the partition table is smoothly restricted to
  | only those atoms whose free-atom density would be non-zero at that grid point.
  Partitioning for Hartree potential was not defined. Using partition_type for integrals.
  | Adjusted default value of keyword multip_moments_threshold to:       0.10000000E-11
  | This value may affect high angular momentum components of the Hartree potential in periodic systems.
  No q(lm)/r^(l+1) cutoff set for long-range Hartree potential.
  | Using default value of  0.100000E-09 .
  | Verify using the multipole_threshold keyword.
  Defaulting to new monopole extrapolation.
  Density update method: automatic selection selected.
 * Warning: use_local_index and/or load_balancing needs packed_matrix_format = index
 * Changing the default setting to packed_matrix_format = index
------------------------------------------------------------


------------------------------------------------------------
          Reading geometry description geometry.in.
------------------------------------------------------------
  Input structure read successfully.
  The structure contains       32 atoms,  and a total of        132.000 electrons.

  Input geometry:
  | No unit cell requested.
  | Atomic structure:
  |       Atom                x [A]            y [A]            z [A]
  |    1: Species H            48.74650600       30.09724700       26.42990500
  |    2: Species C            47.90092100       29.52421900       26.80095900
  |    3: Species C            46.62280400       29.85511800       26.36017900
  |    4: Species C            48.09670100       28.47514300       27.70916500
  |    5: Species C            45.52989900       29.16168900       26.79540800
  |    6: Species H            46.50070500       30.67576300       25.65360000
  |    7: Species C            46.97036800       27.76802600       28.17548100
  |    8: Species C            49.43395900       28.10066400       28.19102500
  |    9: Species H            44.53197500       29.42483400       26.44533800
  |   10: Species C            45.67020700       28.10400200       27.69584200
  |   11: Species C            47.10844700       26.69072500       29.11921600
  |   12: Species C            49.57205500       27.06330200       29.13476000
  |   13: Species C            50.59437400       28.74285800       27.72804000
  |   14: Species C            44.55162200       27.34730400       28.14883400
  |   15: Species C            45.96728900       25.96718500       29.55222400
  |   16: Species C            48.38794700       26.33244400       29.61662000
  |   17: Species C            50.86080900       26.74860100       29.59108300
  |   18: Species H            50.50671100       29.54584100       26.99692300
  |   19: Species C            51.83696100       28.39804000       28.17659100
  |   20: Species H            43.57443600       27.59585300       27.73170400
  |   21: Species C            44.68108300       26.33033800       29.01485000
  |   22: Species C            46.11145100       24.91954000       30.45709900
  |   23: Species C            48.47614500       25.27783600       30.52260500
  |   24: Species H            50.99523300       25.96238100       30.32975000
  |   25: Species C            51.97337700       27.39262500       29.11588500
  |   26: Species H            52.71477100       28.92689000       27.80587000
  |   27: Species H            43.81564200       25.73280300       29.30352200
  |   28: Species H            45.22715600       24.35854400       30.76386800
  |   29: Species C            47.35569000       24.58767200       30.94784100
  |   30: Species H            49.44537200       24.97124700       30.90787100
  |   31: Species H            52.95587300       27.11884300       29.49693200
  |   32: Species H            47.47537500       23.76479200       31.65175600
  |

  | The smallest distance between any two atoms is         1.08676407 AA.
  |
  | The first atom of this pair is atom number                      1 .
  | The second atom of this pair is atom number                     2 .

  Number of empty states per atom not set in control.in - providing a guess from actual geometry.
  | Total number of empty states used during s.c.f. cycle:       78
  If you use a very high smearing, use empty_states (per atom!) in control.in to increase this value.

  Structure-dependent array size parameters: 
  | Maximum number of distinct radial functions  :       18
  | Maximum number of basis functions            :      960
  | Number of Kohn-Sham states (occupied + empty):      144
------------------------------------------------------------

------------------------------------------------------------
          Preparing all fixed parts of the calculation.
------------------------------------------------------------
  Determining machine precision:
    2.225073858507201E-308
  Setting up grids for atomic and cluster calculations.

  Creating wave function, potential, and density for free atoms.

  Species: H

  List of occupied orbitals and eigenvalues:
    n    l              occ      energy [Ha]    energy [eV]
    1    0           1.0000        -0.238386        -6.4868


  Species: C

  List of occupied orbitals and eigenvalues:
    n    l              occ      energy [Ha]    energy [eV]
    1    0           2.0000       -10.049212      -273.4530
    2    0           2.0000        -0.504761       -13.7352
    2    1           2.0000        -0.193631        -5.2690

  Creating fixed part of basis set: Ionic, confined, hydrogenic.
 
  H                    hydrogenic:
 
  List of hydrogenic basis orbitals: 
    n    l      effective z      eigenvalue [eV]  inner max. [A]     outer max. [A]     outer radius [A]   
    2    0         2.100000       -14.9965           0.193243           1.317208           5.373006
    2    1         3.500000       -41.6672           0.602369           0.602369           4.056063
    1    0         0.850000        -9.8292           0.624871           0.624871           5.373006
    2    1         3.700000       -46.5653           0.573622           0.573622           3.910002
    2    0         1.200000        -4.5995           0.334980           2.228188           5.505995
    3    2         7.000000       -74.0753           0.680699           0.680699           3.769201
 
 
  C                    hydrogenic:
 
  List of hydrogenic basis orbitals: 
    n    l      effective z      eigenvalue [eV]  inner max. [A]     outer max. [A]     outer radius [A]   
    2    1         1.700000        -9.8152           1.245706           1.245706           5.401630
    3    2         6.000000       -54.4226           0.792453           0.792453           4.178599
    2    0         4.900000       -81.6681           0.082559           0.562749           3.353238
    4    3         9.800000       -81.6681           0.863254           0.863254           4.028125
    3    1         5.200000       -40.8774           0.305389           1.215618           4.898362
    3    0         4.300000       -27.9508           0.091041           1.610311           5.401630
    5    4        14.400000      -112.8510           0.917666           0.917666           3.883070
    3    2         6.200000       -58.1113           0.763917           0.763917           4.077671
 

  Adding cutoff potential to free-atom effective potential.
  Creating atomic-like basis functions for current effective potential.

  Species H                   :

  List of atomic basis orbitals and eigenvalues:
    n    l      energy [Ha]    energy [eV]    outer radius [A]
    1    0        -0.238386        -6.4868       5.373006


  Species C                   :

  List of atomic basis orbitals and eigenvalues:
    n    l      energy [Ha]    energy [eV]    outer radius [A]
    1    0       -10.049212      -273.4530       1.934409
    2    0        -0.504761       -13.7352       5.271162
    2    1        -0.193631        -5.2690       5.401630

  Assembling full basis from fixed parts.
  | Species H :   atomic orbital   1 s accepted.
  | Species H :    hydro orbital   2 s accepted.
  | Species H :    hydro orbital   1 s accepted.
  | Species H :    hydro orbital   2 s accepted.
  | Species H :    hydro orbital   2 p accepted.
  | Species H :    hydro orbital   2 p accepted.
  | Species H :    hydro orbital   3 d accepted.
  | Species C :   atomic orbital   1 s accepted.
  | Species C :    hydro orbital   2 s accepted.
  | Species C :   atomic orbital   2 s accepted.
  | Species C :    hydro orbital   3 s accepted.
  | Species C :    hydro orbital   3 p accepted.
  | Species C :   atomic orbital   2 p accepted.
  | Species C :    hydro orbital   2 p accepted.
  | Species C :    hydro orbital   3 d accepted.
  | Species C :    hydro orbital   3 d accepted.
  | Species C :    hydro orbital   4 f accepted.
  | Species C :    hydro orbital   5 g accepted.
 
  Basis size parameters after reduction:
  | Total number of radial functions:       18
  | Total number of basis functions :      960
 
  Per-task memory consumption for arrays in subroutine allocate_ext:
  |           4.436216MB.
  Testing on-site integration grid accuracy.
  |  Species  Function  <phi|h_atom|phi> (log., in eV)  <phi|h_atom|phi> (rad., in eV)
           1        1                 -6.4870767962                 -6.4871688290
           1        2                 13.5032046589                 13.5028982997
           1        3                 32.8195184817                 32.8119941656
           1        4                 33.8513856511                 33.7670005767 ***
           1        5                 28.8544614965                 28.8544615203
           1        6                 59.6326952547                 59.6327656460
           1        7                 60.2719308513                 60.2719305949
           2        8               -273.4529726040               -273.4529710464
           2        9                -10.7721037319                -10.7721022101
           2       10                 17.6044132601                 17.6044162063
           2       11                 53.7706460658                 53.7706913770
           2       12                 15.0973290362                 15.0973256030
           2       13                  3.8545134692                  3.8545724687
           2       14                 12.1156992592                 12.1182024431
           2       15                 29.4352039302                 29.4352041816
           2       16                 54.8741144708                 54.8740268729
           2       17                 59.3556032049                 59.3556031382
           2       18                 93.4551837154                 93.4551838009
 * Note: Onsite integrals marked "***" above are less accurate than
 * onsite_accuracy_threshold =    0.03000 eV. Usually, this is harmless.
 * When in doubt, tighten the "radial" and/or "radial_multiplier" flags to check.

  Preparing densities etc. for the partition functions (integrals / Hartree potential).

  Preparations completed.
  max(cpu_time)          :      0.197 s.
  Wall clock time (cpu1) :      0.191 s.
------------------------------------------------------------

------------------------------------------------------------
          Begin self-consistency loop: Initialization.

          Date     :  20210620, Time     :  163836.692
------------------------------------------------------------

  Initializing index lists of integration centers etc. from given atomic structure:
  | Number of centers in hartree potential         :        32
  | Number of centers in hartree multipole         :        32
  | Number of centers in electron density summation:        32
  | Number of centers in basis integrals           :        32
  | Number of centers in integrals                 :        32
  | Number of centers in hamiltonian               :        32
  * Using 56 tasks for Scalapack Eigenvalue solver.
  Detailed listing of tasks and assigned k-points:
  (for non-periodic systems, the "k-point" denotes an internal label only)
   Task     0 k-point     1 on d021
   Task     1 k-point     1 on d021
   Task     2 k-point     1 on d021
   Task     3 k-point     1 on d021
   Task     4 k-point     1 on d021
   Task     5 k-point     1 on d021
   Task     6 k-point     1 on d021
   Task     7 k-point     1 on d021
   Task     8 k-point     1 on d021
   Task     9 k-point     1 on d021
   Task    10 k-point     1 on d021
   Task    11 k-point     1 on d021
   Task    12 k-point     1 on d021
   Task    13 k-point     1 on d021
   Task    14 k-point     1 on d021
   Task    15 k-point     1 on d021
   Task    16 k-point     1 on d021
   Task    17 k-point     1 on d021
   Task    18 k-point     1 on d021
   Task    19 k-point     1 on d021
   Task    20 k-point     1 on d021
   Task    21 k-point     1 on d021
   Task    22 k-point     1 on d021
   Task    23 k-point     1 on d021
   Task    24 k-point     1 on d021
   Task    25 k-point     1 on d021
   Task    26 k-point     1 on d021
   Task    27 k-point     1 on d021
   Task    28 k-point     1 on d021
   Task    29 k-point     1 on d021
   Task    30 k-point     1 on d021
   Task    31 k-point     1 on d021
   Task    32 k-point     1 on d021
   Task    33 k-point     1 on d021
   Task    34 k-point     1 on d021
   Task    35 k-point     1 on d021
   Task    36 k-point     1 on d021
   Task    37 k-point     1 on d021
   Task    38 k-point     1 on d021
   Task    39 k-point     1 on d021
   Task    40 k-point     1 on d021
   Task    41 k-point     1 on d021
   Task    42 k-point     1 on d021
   Task    43 k-point     1 on d021
   Task    44 k-point     1 on d021
   Task    45 k-point     1 on d021
   Task    46 k-point     1 on d021
   Task    47 k-point     1 on d021
   Task    48 k-point     1 on d021
   Task    49 k-point     1 on d021
   Task    50 k-point     1 on d021
   Task    51 k-point     1 on d021
   Task    52 k-point     1 on d021
   Task    53 k-point     1 on d021
   Task    54 k-point     1 on d021
   Task    55 k-point     1 on d021
  Tasks:    56 split into      8 X      7 BLACS grid
  Calculating block size based on n_basis =          960 max_nprow =            8 max_npcol =            7
  ScaLAPACK block size set to:           16
  Allocating        0.147 MB for ovlp
  Allocating        0.147 MB for ham
  Allocating        0.147 MB for eigenvec
  Required Scalapack workspace - INTEGER:            1 REAL:             1
  Partitioning the integration grid into batches with parallel hashing+maxmin method.
  | Number of batches:     4891
  | Maximal batch size:     200
  | Minimal batch size:       3
  | Average batch size:     109.376
  | Standard deviation of batch sizes:      32.642

  Integration load balanced across     56 MPI tasks.
  Work distribution over tasks is as follows:
  Task      0 has       9635 integration points.
  Task      1 has       9608 integration points.
  Task      2 has       9487 integration points.
  Task      3 has       9640 integration points.
  Task      4 has       9521 integration points.
  Task      5 has       9540 integration points.
  Task      6 has       9528 integration points.
  Task      7 has       9611 integration points.
  Task      8 has       9580 integration points.
  Task      9 has       9543 integration points.
  Task     10 has       9632 integration points.
  Task     11 has       9486 integration points.
  Task     12 has       9509 integration points.
  Task     13 has       9484 integration points.
  Task     14 has       9611 integration points.
  Task     15 has       9666 integration points.
  Task     16 has       9470 integration points.
  Task     17 has       9646 integration points.
  Task     18 has       9524 integration points.
  Task     19 has       9548 integration points.
  Task     20 has       9470 integration points.
  Task     21 has       9596 integration points.
  Task     22 has       9550 integration points.
  Task     23 has       9533 integration points.
  Task     24 has       9563 integration points.
  Task     25 has       9536 integration points.
  Task     26 has       9574 integration points.
  Task     27 has       9498 integration points.
  Task     28 has       9643 integration points.
  Task     29 has       9624 integration points.
  Task     30 has       9494 integration points.
  Task     31 has       9633 integration points.
  Task     32 has       9520 integration points.
  Task     33 has       9665 integration points.
  Task     34 has       9348 integration points.
  Task     35 has       9642 integration points.
  Task     36 has       9534 integration points.
  Task     37 has       9504 integration points.
  Task     38 has       9690 integration points.
  Task     39 has       9489 integration points.
  Task     40 has       9544 integration points.
  Task     41 has       9394 integration points.
  Task     42 has       9650 integration points.
  Task     43 has       9608 integration points.
  Task     44 has       9449 integration points.
  Task     45 has       9627 integration points.
  Task     46 has       9512 integration points.
  Task     47 has       9507 integration points.
  Task     48 has       9485 integration points.
  Task     49 has       9614 integration points.
  Task     50 has       9609 integration points.
  Task     51 has       9507 integration points.
  Task     52 has       9578 integration points.
  Task     53 has       9567 integration points.
  Task     54 has       9591 integration points.
  Task     55 has       9343 integration points.
  Initializing partition tables, free-atom densities, potentials, etc. across the integration grid (initialize_grid_storage).
  | initialize_grid_storage: Actual outermost partition radius vs. multipole_radius_free
  | (-- VB: in principle, multipole_radius_free should be larger, hence this output)
  | Species        1: Confinement radius =              6.000000000000000 AA, multipole_radius_free =              6.071692442739658 AA.
  | Species        1: outer_partition_radius set to              6.071692442739658 AA .
  | Species        2: Confinement radius =              6.000000000000000 AA, multipole_radius_free =              6.029870734432609 AA.
  | Species        2: outer_partition_radius set to              6.029870734432609 AA .
  | The sparse table of interatomic distances needs     12.0360 kbyte instead of     8.1920 kbyte of memory.
  | Using the partition_type stratmann_smoother will reduce your memory usage.
  | Net number of integration points:   534960
  | of which are non-zero points    :   432813
  Renormalizing the initial density to the exact electron count on the 3D integration grid.
  | Initial density: Formal number of electrons (from input files) :     132.0000000000
  | Integrated number of electrons on 3D grid     :     131.9999947646
  | Charge integration error                      :      -0.0000052354
  | Normalization factor for density and gradient :       1.0000000397
  Obtaining max. number of non-zero basis functions in each batch (get_n_compute_maxes).
  | Maximal number of non-zero basis functions:      879
  Selecting the method for density update.
  Loop over occupied states selected for charge density update.
  Hamiltonian matrix size:
  | Size of matrix non-packed:                461280
  | Size of matrix packed:          455931
  Allocating        1.106 MB for KS_eigenvector
  use_local_index: Max. local matrix size =       434519
  Task:     0 matrix size:     212064
  Task:     1 matrix size:     163809
  Task:     2 matrix size:     205082
  Task:     3 matrix size:     373653
  Task:     4 matrix size:     409417
  Task:     5 matrix size:     331419
  Task:     6 matrix size:     393630
  Task:     7 matrix size:     106030
  Task:     8 matrix size:     238269
  Task:     9 matrix size:     177906
  Task:    10 matrix size:     134940
  Task:    11 matrix size:     210240
  Task:    12 matrix size:     336299
  Task:    13 matrix size:     301937
  Task:    14 matrix size:     179088
  Task:    15 matrix size:     267457
  Task:    16 matrix size:     342596
  Task:    17 matrix size:      99235
  Task:    18 matrix size:     157077
  Task:    19 matrix size:     221445
  Task:    20 matrix size:     139128
  Task:    21 matrix size:     176622
  Task:    22 matrix size:     399626
  Task:    23 matrix size:     347528
  Task:    24 matrix size:     421895
  Task:    25 matrix size:     392702
  Task:    26 matrix size:     278260
  Task:    27 matrix size:     428971
  Task:    28 matrix size:     434519
  Task:    29 matrix size:     419053
  Task:    30 matrix size:     424682
  Task:    31 matrix size:     312240
  Task:    32 matrix size:     304180
  Task:    33 matrix size:     265793
  Task:    34 matrix size:     114003
  Task:    35 matrix size:     353161
  Task:    36 matrix size:     311644
  Task:    37 matrix size:     230652
  Task:    38 matrix size:     207542
  Task:    39 matrix size:     219858
  Task:    40 matrix size:     236902
  Task:    41 matrix size:     208149
  Task:    42 matrix size:     224591
  Task:    43 matrix size:     373134
  Task:    44 matrix size:     308131
  Task:    45 matrix size:     254018
  Task:    46 matrix size:     300128
  Task:    47 matrix size:     150884
  Task:    48 matrix size:     231053
  Task:    49 matrix size:     418982
  Task:    50 matrix size:     427416
  Task:    51 matrix size:     412468
  Task:    52 matrix size:     216790
  Task:    53 matrix size:     113050
  Task:    54 matrix size:     210247
  Task:    55 matrix size:     197365
  Integrating Hamiltonian matrix: batch-based integration.
  Time summed over all CPUs for integration: real work       80.143 s, elapsed      138.005 s
  Time get_set_sparse_local_matrix_scalapack:     0.011119 s
  Start compute_balanced_batch_distribution
  Done load balancing, time needed:      0.005 s
  Integrating overlap matrix with loadbalancing
  Time summed over all CPUs for integration: real work       21.740 s, elapsed       26.031 s
  Time get_set_full_local_matrix_scalapack:     0.010230 s

  Updating Kohn-Sham eigenvalues and eigenvectors using ELSI and the ELPA eigensolver.
  Overlap matrix is not singular
  | Lowest and highest eigenvalues :  0.11E+02,  0.88E-04
  Finished singularity check of overlap matrix
  | Time :     0.050 s
  Finished Cholesky decomposition
  | Time :     0.011 s
  Finished transformation to standard eigenproblem
  | Time :     0.007 s
  Starting ELPA eigensolver
  Finished solving standard eigenproblem
  | Time :     0.047 s
  Finished back-transformation of eigenvectors
  | Time :     0.002 s

  Obtaining occupation numbers and chemical potential using ELSI.
  | Chemical potential (Fermi level):    -8.48341600 eV
  Writing Kohn-Sham eigenvalues.

  State    Occupation    Eigenvalue [Ha]    Eigenvalue [eV]
      1       2.00000         -10.176122         -276.90637
      2       2.00000         -10.175294         -276.88385
      3       2.00000         -10.174599         -276.86494
      4       2.00000         -10.173914         -276.84629
      5       2.00000         -10.173898         -276.84584
      6       2.00000         -10.173893         -276.84573
      7       2.00000         -10.173136         -276.82512
      8       2.00000         -10.172857         -276.81752
      9       2.00000         -10.172359         -276.80397
     10       2.00000         -10.172172         -276.79888
     11       2.00000         -10.171786         -276.78838
     12       2.00000         -10.169606         -276.72906
     13       2.00000         -10.167951         -276.68403
     14       2.00000         -10.167387         -276.66866
     15       2.00000         -10.164466         -276.58918
     16       2.00000         -10.164024         -276.57717
     17       2.00000         -10.163520         -276.56346
     18       2.00000         -10.163347         -276.55874
     19       2.00000         -10.163151         -276.55342
     20       2.00000         -10.162965         -276.54835
     21       2.00000          -1.021801          -27.80461
     22       2.00000          -0.997416          -27.14106
     23       2.00000          -0.988782          -26.90612
     24       2.00000          -0.951276          -25.88553
     25       2.00000          -0.930060          -25.30823
     26       2.00000          -0.911005          -24.78972
     27       2.00000          -0.882887          -24.02456
     28       2.00000          -0.881749          -23.99361
     29       2.00000          -0.864023          -23.51127
     30       2.00000          -0.855579          -23.28150
     31       2.00000          -0.777218          -21.14919
     32       2.00000          -0.776175          -21.12079
     33       2.00000          -0.771708          -20.99924
     34       2.00000          -0.767430          -20.88282
     35       2.00000          -0.729862          -19.86056
     36       2.00000          -0.701677          -19.09360
     37       2.00000          -0.685212          -18.64558
     38       2.00000          -0.679086          -18.47888
     39       2.00000          -0.666796          -18.14444
     40       2.00000          -0.641802          -17.46433
     41       2.00000          -0.626103          -17.03714
     42       2.00000          -0.617828          -16.81194
     43       2.00000          -0.611765          -16.64698
     44       2.00000          -0.603783          -16.42977
     45       2.00000          -0.592542          -16.12388
     46       2.00000          -0.580469          -15.79536
     47       2.00000          -0.575004          -15.64665
     48       2.00000          -0.569049          -15.48461
     49       2.00000          -0.568124          -15.45943
     50       2.00000          -0.540738          -14.71424
     51       2.00000          -0.532813          -14.49858
     52       2.00000          -0.526081          -14.31540
     53       2.00000          -0.523283          -14.23926
     54       2.00000          -0.516943          -14.06674
     55       2.00000          -0.510683          -13.89638
     56       2.00000          -0.507945          -13.82188
     57       2.00000          -0.499595          -13.59466
     58       2.00000          -0.485354          -13.20716
     59       2.00000          -0.481468          -13.10142
     60       2.00000          -0.460726          -12.53698
     61       2.00000          -0.439198          -11.95118
     62       2.00000          -0.429718          -11.69322
     63       2.00000          -0.399768          -10.87823
     64       2.00000          -0.398581          -10.84595
     65       2.00000          -0.376319          -10.24016
     66       2.00000          -0.360803           -9.81794
     67       0.00000          -0.252816           -6.87946
     68       0.00000          -0.237307           -6.45744
     69       0.00000          -0.219738           -5.97938
     70       0.00000          -0.212047           -5.77009
     71       0.00000          -0.173113           -4.71064
     72       0.00000          -0.162529           -4.42265
     73       0.00000          -0.135578           -3.68927
     74       0.00000          -0.074438           -2.02555
     75       0.00000          -0.071018           -1.93250
     76       0.00000          -0.067265           -1.83039
     77       0.00000          -0.064012           -1.74185
     78       0.00000          -0.057760           -1.57174
     79       0.00000          -0.046657           -1.26961
     80       0.00000          -0.037442           -1.01885
     81       0.00000          -0.028365           -0.77185
     82       0.00000          -0.020528           -0.55859
     83       0.00000          -0.012380           -0.33686
     84       0.00000          -0.006348           -0.17273
     85       0.00000          -0.002581           -0.07023
     86       0.00000          -0.002051           -0.05581
     87       0.00000           0.002961            0.08058
     88       0.00000           0.013387            0.36428
     89       0.00000           0.016340            0.44464
     90       0.00000           0.021377            0.58171
     91       0.00000           0.024543            0.66784
     92       0.00000           0.028965            0.78817
     93       0.00000           0.035002            0.95246
     94       0.00000           0.035629            0.96952
     95       0.00000           0.042513            1.15685
     96       0.00000           0.044111            1.20033
     97       0.00000           0.045487            1.23776
     98       0.00000           0.060574            1.64830
     99       0.00000           0.064894            1.76586
    100       0.00000           0.067886            1.84728
    101       0.00000           0.071401            1.94293
    102       0.00000           0.072331            1.96823
    103       0.00000           0.072934            1.98463
    104       0.00000           0.084445            2.29787
    105       0.00000           0.088799            2.41633
    106       0.00000           0.091200            2.48168
    107       0.00000           0.095969            2.61145
    108       0.00000           0.096811            2.63435
    109       0.00000           0.099212            2.69970
    110       0.00000           0.102782            2.79685
    111       0.00000           0.102961            2.80170
    112       0.00000           0.110481            3.00635
    113       0.00000           0.111786            3.04185
    114       0.00000           0.115228            3.13552
    115       0.00000           0.131793            3.58628
    116       0.00000           0.140906            3.83424
    117       0.00000           0.144951            3.94430
    118       0.00000           0.147783            4.02137
    119       0.00000           0.150148            4.08573
    120       0.00000           0.153496            4.17685
    121       0.00000           0.156654            4.26277
    122       0.00000           0.157109            4.27514
    123       0.00000           0.158631            4.31656
    124       0.00000           0.165854            4.51311
    125       0.00000           0.170568            4.64139
    126       0.00000           0.171025            4.65382
    127       0.00000           0.172961            4.70652
    128       0.00000           0.174464            4.74742
    129       0.00000           0.180263            4.90520
    130       0.00000           0.187265            5.09574
    131       0.00000           0.197878            5.38455
    132       0.00000           0.209651            5.70489
    133       0.00000           0.211910            5.76636
    134       0.00000           0.214305            5.83152
    135       0.00000           0.216960            5.90379
    136       0.00000           0.222155            6.04516
    137       0.00000           0.223696            6.08709
    138       0.00000           0.224579            6.11110
    139       0.00000           0.231356            6.29552
    140       0.00000           0.232126            6.31647
    141       0.00000           0.238419            6.48771
    142       0.00000           0.245565            6.68217
    143       0.00000           0.249258            6.78266
    144       0.00000           0.258906            7.04518

  Highest occupied state (VBM) at     -9.81794171 eV
  | Occupation number:      2.00000000

  Lowest unoccupied state (CBM) at    -6.87946262 eV
  | Occupation number:      0.00000000

  Overall HOMO-LUMO gap:      2.93847909 eV.
  Calculating total energy contributions from superposition of free atom densities.

  Total energy components:
  | Sum of eigenvalues            :        -466.42534818 Ha      -12692.07948994 eV
  | XC energy correction          :        -110.28284461 Ha       -3000.94888854 eV
  | XC potential correction       :         141.65757740 Ha        3854.69880603 eV
  | Free-atom electrostatic energy:        -334.97918368 Ha       -9115.24736664 eV
  | Hartree energy correction     :           0.00000000 Ha           0.00000000 eV
  | Entropy correction            :           0.00000000 Ha           0.00000000 eV
  | ---------------------------
  | Total energy                  :        -770.02979908 Ha      -20953.57693910 eV
  | Total energy, T -> 0          :        -770.02979908 Ha      -20953.57693910 eV  <-- do not rely on this value for anything but (periodic) metals
  | Electronic free energy        :        -770.02979908 Ha      -20953.57693910 eV

  Derived energy quantities:
  | Kinetic energy                :         762.90359923 Ha       20759.66317502 eV
  | Electrostatic energy          :       -1422.65055369 Ha      -38712.29122558 eV
  | Energy correction for multipole
  | error in Hartree potential    :           0.00000000 Ha           0.00000000 eV
  | Sum of eigenvalues per atom                           :        -396.62748406 eV
  | Total energy (T->0) per atom                          :        -654.79927935 eV  <-- do not rely on this value for anything but (periodic) metals
  | Electronic free energy per atom                       :        -654.79927935 eV
  Initialize hartree_potential_storage
  Max. number of atoms included in rho_multipole:           32

  End scf initialization - timings             :  max(cpu_time)    wall_clock(cpu1)
  | Time for scf. initialization               :        3.947 s           4.006 s
  | Boundary condition initialization          :        0.001 s           0.004 s
  | Integration                                :        2.967 s           2.973 s
  | Solution of K.-S. eqns.                    :        0.120 s           0.138 s
  | Grid partitioning                          :        0.420 s           0.424 s
  | Preloading free-atom quantities on grid    :        0.013 s           0.016 s
  | Free-atom superposition energy             :        0.034 s           0.035 s
  | Total energy evaluation                    :        0.001 s           0.004 s

  Partial memory accounting:
  | Current value for overall tracked memory usage on task 0  :           2.397 MB
  | Peak value for overall tracked memory usage on task 0     :          22.954 MB after allocating zora_vector2
  | Largest tracked array allocation on task 0 so far         :           6.181 MB  when allocating hamiltonian_shell
  Note:  These values currently only include a subset of arrays which are explicitly tracked.
  The "true" memory usage will be greater.
------------------------------------------------------------

------------------------------------------------------------
          Begin self-consistency iteration #    1

  Date     :  20210620, Time     :  163840.701
------------------------------------------------------------
  Evaluating new KS density.
  Integration grid: deviation in total charge (<rho> - N_e) =   0.000000E+00
  Pulay mixing of updated and previous charge densities.

  Evaluating partitioned Hartree potential by multipole expansion.
  | Analytical far-field extrapolation by fixed multipoles:
  | Hartree multipole sum: apparent total charge =  -0.112261E-04
  Summing up the Hartree potential with load balancing.
  Time summed over all CPUs for potential: real work       12.196 s, elapsed       18.653 s
  | RMS charge density error from multipole expansion :   0.108997E-01

  Start compute_balanced_batch_distribution
  Done load balancing, time needed:      0.004 s
  Integrating Hamiltonian matrix: batch-based integration with load balancing
  Time summed over all CPUs for integration: real work       88.279 s, elapsed       98.379 s
  Time get_set_full_local_matrix_scalapack:     0.010360 s
  Start compute_balanced_batch_distribution
  Done load balancing, time needed:      0.004 s

  Updating Kohn-Sham eigenvalues and eigenvectors using ELSI and the ELPA eigensolver.
  Finished transformation to standard eigenproblem
  | Time :     0.006 s
  Starting ELPA eigensolver
  Finished solving standard eigenproblem
  | Time :     0.044 s
  Finished back-transformation of eigenvectors
  | Time :     0.002 s

  Obtaining occupation numbers and chemical potential using ELSI.
  | Chemical potential (Fermi level):    -4.05246066 eV
  Writing Kohn-Sham eigenvalues.

  State    Occupation    Eigenvalue [Ha]    Eigenvalue [eV]
      1       2.00000          -9.982241         -271.63059
      2       2.00000          -9.981897         -271.62124
      3       2.00000          -9.980939         -271.59518
      4       2.00000          -9.980553         -271.58466
      5       2.00000          -9.977857         -271.51131
      6       2.00000          -9.977553         -271.50302
      7       2.00000          -9.969573         -271.28589
      8       2.00000          -9.968323         -271.25186
      9       2.00000          -9.953034         -270.83585
     10       2.00000          -9.951803         -270.80233
     11       2.00000          -9.949143         -270.72996
     12       2.00000          -9.948504         -270.71256
     13       2.00000          -9.947484         -270.68481
     14       2.00000          -9.947249         -270.67841
     15       2.00000          -9.947055         -270.67313
     16       2.00000          -9.945730         -270.63708
     17       2.00000          -9.945140         -270.62103
     18       2.00000          -9.944427         -270.60164
     19       2.00000          -9.940336         -270.49030
     20       2.00000          -9.939722         -270.47360
     21       2.00000          -0.876359          -23.84694
     22       2.00000          -0.842704          -22.93115
     23       2.00000          -0.836424          -22.76025
     24       2.00000          -0.798972          -21.74113
     25       2.00000          -0.779502          -21.21134
     26       2.00000          -0.767176          -20.87593
     27       2.00000          -0.735793          -20.02195
     28       2.00000          -0.731475          -19.90446
     29       2.00000          -0.714571          -19.44447
     30       2.00000          -0.705374          -19.19421
     31       2.00000          -0.636235          -17.31284
     32       2.00000          -0.631560          -17.18562
     33       2.00000          -0.628192          -17.09398
     34       2.00000          -0.626439          -17.04628
     35       2.00000          -0.587620          -15.98995
     36       2.00000          -0.559953          -15.23710
     37       2.00000          -0.550796          -14.98793
     38       2.00000          -0.544631          -14.82016
     39       2.00000          -0.519229          -14.12894
     40       2.00000          -0.507578          -13.81190
     41       2.00000          -0.490351          -13.34313
     42       2.00000          -0.482490          -13.12921
     43       2.00000          -0.472716          -12.86326
     44       2.00000          -0.462008          -12.57186
     45       2.00000          -0.452803          -12.32139
     46       2.00000          -0.438789          -11.94007
     47       2.00000          -0.437728          -11.91119
     48       2.00000          -0.435694          -11.85583
     49       2.00000          -0.426877          -11.61591
     50       2.00000          -0.421779          -11.47718
     51       2.00000          -0.409157          -11.13374
     52       2.00000          -0.393049          -10.69541
     53       2.00000          -0.385494          -10.48982
     54       2.00000          -0.383079          -10.42410
     55       2.00000          -0.381180          -10.37245
     56       2.00000          -0.375763          -10.22503
     57       2.00000          -0.375415          -10.21556
     58       2.00000          -0.345713           -9.40734
     59       2.00000          -0.341507           -9.29287
     60       2.00000          -0.334738           -9.10868
     61       2.00000          -0.312974           -8.51647
     62       2.00000          -0.307299           -8.36203
     63       2.00000          -0.275205           -7.48872
     64       2.00000          -0.270890           -7.37129
     65       2.00000          -0.249546           -6.79050
     66       2.00000          -0.233565           -6.35562
     67       0.00000          -0.128371           -3.49315
     68       0.00000          -0.113291           -3.08280
     69       0.00000          -0.097316           -2.64810
     70       0.00000          -0.090189           -2.45416
     71       0.00000          -0.049518           -1.34746
     72       0.00000          -0.036714           -0.99905
     73       0.00000          -0.028670           -0.78016
     74       0.00000          -0.023223           -0.63194
     75       0.00000          -0.020052           -0.54565
     76       0.00000          -0.013568           -0.36920
     77       0.00000          -0.004651           -0.12656
     78       0.00000          -0.002143           -0.05830
     79       0.00000           0.014225            0.38708
     80       0.00000           0.017640            0.48002
     81       0.00000           0.037817            1.02906
     82       0.00000           0.038757            1.05463
     83       0.00000           0.050621            1.37747
     84       0.00000           0.054362            1.47927
     85       0.00000           0.063306            1.72263
     86       0.00000           0.065987            1.79559
     87       0.00000           0.072706            1.97842
     88       0.00000           0.075523            2.05508
     89       0.00000           0.077477            2.10827
     90       0.00000           0.092441            2.51546
     91       0.00000           0.102958            2.80163
     92       0.00000           0.106238            2.89088
     93       0.00000           0.110998            3.02040
     94       0.00000           0.112834            3.07038
     95       0.00000           0.114946            3.12783
     96       0.00000           0.116419            3.16791
     97       0.00000           0.121535            3.30714
     98       0.00000           0.132162            3.59632
     99       0.00000           0.134278            3.65389
    100       0.00000           0.138474            3.76808
    101       0.00000           0.141387            3.84733
    102       0.00000           0.143416            3.90256
    103       0.00000           0.150474            4.09460
    104       0.00000           0.155245            4.22444
    105       0.00000           0.155865            4.24131
    106       0.00000           0.156390            4.25558
    107       0.00000           0.157575            4.28783
    108       0.00000           0.163122            4.43878
    109       0.00000           0.169202            4.60421
    110       0.00000           0.169834            4.62142
    111       0.00000           0.175010            4.76228
    112       0.00000           0.188825            5.13820
    113       0.00000           0.191339            5.20659
    114       0.00000           0.198752            5.40832
    115       0.00000           0.202112            5.49975
    116       0.00000           0.205923            5.60345
    117       0.00000           0.206703            5.62467
    118       0.00000           0.208550            5.67492
    119       0.00000           0.214232            5.82954
    120       0.00000           0.221015            6.01413
    121       0.00000           0.223646            6.08573
    122       0.00000           0.225346            6.13197
    123       0.00000           0.228486            6.21743
    124       0.00000           0.229437            6.24331
    125       0.00000           0.230847            6.28166
    126       0.00000           0.244614            6.65627
    127       0.00000           0.248233            6.75475
    128       0.00000           0.250796            6.82450
    129       0.00000           0.261886            7.12627
    130       0.00000           0.263194            7.16186
    131       0.00000           0.264708            7.20308
    132       0.00000           0.270530            7.36149
    133       0.00000           0.274644            7.47344
    134       0.00000           0.282226            7.67976
    135       0.00000           0.291209            7.92421
    136       0.00000           0.295382            8.03776
    137       0.00000           0.303537            8.25966
    138       0.00000           0.307098            8.35656
    139       0.00000           0.312489            8.50326
    140       0.00000           0.315531            8.58604
    141       0.00000           0.318601            8.66957
    142       0.00000           0.321967            8.76116
    143       0.00000           0.331074            9.00899
    144       0.00000           0.334680            9.10712

  Highest occupied state (VBM) at     -6.35561798 eV
  | Occupation number:      2.00000000

  Lowest unoccupied state (CBM) at    -3.49315396 eV
  | Occupation number:      0.00000000

  Overall HOMO-LUMO gap:      2.86246402 eV.

  Total energy components:
  | Sum of eigenvalues            :        -445.30991151 Ha      -12117.49922376 eV
  | XC energy correction          :        -111.69722088 Ha       -3039.43602493 eV
  | XC potential correction       :         143.49438413 Ha        3904.68086029 eV
  | Free-atom electrostatic energy:        -334.97918368 Ha       -9115.24736664 eV
  | Hartree energy correction     :         -20.84767155 Ha        -567.29400661 eV
  | Entropy correction            :           0.00000000 Ha           0.00000000 eV
  | ---------------------------
  | Total energy                  :        -769.33960349 Ha      -20934.79576165 eV
  | Total energy, T -> 0          :        -769.33960349 Ha      -20934.79576165 eV  <-- do not rely on this value for anything but (periodic) metals
  | Electronic free energy        :        -769.33960349 Ha      -20934.79576165 eV

  Derived energy quantities:
  | Kinetic energy                :         769.24844110 Ha       20932.31510690 eV
  | Electrostatic energy          :       -1426.89082371 Ha      -38827.67484362 eV
  | Energy correction for multipole
  | error in Hartree potential    :          -0.04956249 Ha          -1.34866391 eV
  | Sum of eigenvalues per atom                           :        -378.67185074 eV
  | Total energy (T->0) per atom                          :        -654.21236755 eV  <-- do not rely on this value for anything but (periodic) metals
  | Electronic free energy per atom                       :        -654.21236755 eV

  Self-consistency convergence accuracy:
  | Change of charge density      :  0.8906E+00
  | Change of sum of eigenvalues  :  0.5746E+03 eV
  | Change of total energy        :  0.1878E+02 eV

  End self-consistency iteration #     1       :  max(cpu_time)    wall_clock(cpu1)
  | Time for this iteration                    :        2.792 s           2.798 s
  | Charge density update                      :        0.592 s           0.593 s
  | Density mixing                             :        0.002 s           0.003 s
  | Hartree multipole update                   :        0.007 s           0.008 s
  | Hartree multipole summation                :        0.340 s           0.341 s
  | Integration                                :        1.761 s           1.761 s
  | Solution of K.-S. eqns.                    :        0.078 s           0.078 s
  | Total energy evaluation                    :        0.000 s           0.000 s

  Partial memory accounting:
  | Current value for overall tracked memory usage on task 0  :           2.397 MB
  | Peak value for overall tracked memory usage on task 0     :          23.374 MB after allocating zora_vector2
  | Largest tracked array allocation on task 0 so far         :           6.181 MB  when allocating hamiltonian_shell
  Note:  These values currently only include a subset of arrays which are explicitly tracked.
  The "true" memory usage will be greater.
------------------------------------------------------------

------------------------------------------------------------
          Begin self-consistency iteration #    2

  Date     :  20210620, Time     :  163843.501
------------------------------------------------------------
  Evaluating new KS density.
  Integration grid: deviation in total charge (<rho> - N_e) =   0.000000E+00
  Pulay mixing of updated and previous charge densities.

  Evaluating partitioned Hartree potential by multipole expansion.
  | Analytical far-field extrapolation by fixed multipoles:
  | Hartree multipole sum: apparent total charge =  -0.113401E-04
  Summing up the Hartree potential with load balancing.
  Time summed over all CPUs for potential: real work       12.251 s, elapsed       14.129 s
  | RMS charge density error from multipole expansion :   0.191926E-01

  Integrating Hamiltonian matrix: batch-based integration with load balancing
  Time summed over all CPUs for integration: real work       89.571 s, elapsed       92.946 s
  Time get_set_full_local_matrix_scalapack:     0.012147 s

  Updating Kohn-Sham eigenvalues and eigenvectors using ELSI and the ELPA eigensolver.
  Finished transformation to standard eigenproblem
  | Time :     0.006 s
  Starting ELPA eigensolver
  Finished solving standard eigenproblem
  | Time :     0.044 s
  Finished back-transformation of eigenvectors
  | Time :     0.002 s

  Obtaining occupation numbers and chemical potential using ELSI.
  | Chemical potential (Fermi level):    -3.00049838 eV
  Highest occupied state (VBM) at     -5.23191068 eV
  | Occupation number:      2.00000000

  Lowest unoccupied state (CBM) at    -2.35837710 eV
  | Occupation number:      0.00000000

  Overall HOMO-LUMO gap:      2.87353358 eV.

  Checking to see if s.c.f. parameters should be adjusted.

  Total energy components:
  | Sum of eigenvalues            :        -438.08920007 Ha      -11921.01366852 eV
  | XC energy correction          :        -112.32052459 Ha       -3056.39698196 eV
  | XC potential correction       :         144.29646583 Ha        3926.50661368 eV
  | Free-atom electrostatic energy:        -334.97918368 Ha       -9115.24736664 eV
  | Hartree energy correction     :         -28.15882683 Ha        -766.24066403 eV
  | Entropy correction            :           0.00000000 Ha           0.00000000 eV
  | ---------------------------
  | Total energy                  :        -769.25126935 Ha      -20932.39206747 eV
  | Total energy, T -> 0          :        -769.25126935 Ha      -20932.39206747 eV  <-- do not rely on this value for anything but (periodic) metals
  | Electronic free energy        :        -769.25126935 Ha      -20932.39206747 eV

  Derived energy quantities:
  | Kinetic energy                :         769.26445978 Ha       20932.75099735 eV
  | Electrostatic energy          :       -1426.19520454 Ha      -38808.74608286 eV
  | Energy correction for multipole
  | error in Hartree potential    :          -0.08092403 Ha          -2.20205502 eV
  | Sum of eigenvalues per atom                           :        -372.53167714 eV
  | Total energy (T->0) per atom                          :        -654.13725211 eV  <-- do not rely on this value for anything but (periodic) metals
  | Electronic free energy per atom                       :        -654.13725211 eV

  Self-consistency convergence accuracy:
  | Change of charge density      :  0.4353E+00
  | Change of sum of eigenvalues  :  0.1965E+03 eV
  | Change of total energy        :  0.2404E+01 eV

  End self-consistency iteration #     2       :  max(cpu_time)    wall_clock(cpu1)
  | Time for this iteration                    :        2.598 s           2.601 s
  | Charge density update                      :        0.589 s           0.588 s
  | Density mixing                             :        0.003 s           0.004 s
  | Hartree multipole update                   :        0.007 s           0.007 s
  | Hartree multipole summation                :        0.254 s           0.255 s
  | Integration                                :        1.663 s           1.662 s
  | Solution of K.-S. eqns.                    :        0.078 s           0.079 s
  | Total energy evaluation                    :        0.000 s           0.002 s

  Partial memory accounting:
  | Current value for overall tracked memory usage on task 0  :           2.398 MB
  | Peak value for overall tracked memory usage on task 0     :          23.374 MB after allocating zora_vector2
  | Largest tracked array allocation on task 0 so far         :           6.181 MB  when allocating hamiltonian_shell
  Note:  These values currently only include a subset of arrays which are explicitly tracked.
  The "true" memory usage will be greater.
------------------------------------------------------------

------------------------------------------------------------
          Begin self-consistency iteration #    3

  Date     :  20210620, Time     :  163846.105
------------------------------------------------------------
  Evaluating new KS density.
  Integration grid: deviation in total charge (<rho> - N_e) =   8.526513E-14
  Pulay mixing of updated and previous charge densities.

  Evaluating partitioned Hartree potential by multipole expansion.
  | Analytical far-field extrapolation by fixed multipoles:
  | Hartree multipole sum: apparent total charge =  -0.106244E-04
  Summing up the Hartree potential with load balancing.
  Time summed over all CPUs for potential: real work       12.250 s, elapsed       14.141 s
  | RMS charge density error from multipole expansion :   0.229107E-01

  Integrating Hamiltonian matrix: batch-based integration with load balancing
  Time summed over all CPUs for integration: real work       89.796 s, elapsed       93.130 s
  Time get_set_full_local_matrix_scalapack:     0.012156 s

  Updating Kohn-Sham eigenvalues and eigenvectors using ELSI and the ELPA eigensolver.
  Finished transformation to standard eigenproblem
  | Time :     0.008 s
  Starting ELPA eigensolver
  Finished solving standard eigenproblem
  | Time :     0.045 s
  Finished back-transformation of eigenvectors
  | Time :     0.002 s

  Obtaining occupation numbers and chemical potential using ELSI.
  | Chemical potential (Fermi level):    -3.05112775 eV
  Highest occupied state (VBM) at     -5.26130147 eV
  | Occupation number:      2.00000000

  Lowest unoccupied state (CBM) at    -2.38572959 eV
  | Occupation number:      0.00000000

  Overall HOMO-LUMO gap:      2.87557189 eV.

  Total energy components:
  | Sum of eigenvalues            :        -438.23318453 Ha      -11924.93168500 eV
  | XC energy correction          :        -112.38751308 Ha       -3058.21983155 eV
  | XC potential correction       :         144.37884214 Ha        3928.74818705 eV
  | Free-atom electrostatic energy:        -334.97918368 Ha       -9115.24736664 eV
  | Hartree energy correction     :         -28.02699395 Ha        -762.65330873 eV
  | Entropy correction            :           0.00000000 Ha           0.00000000 eV
  | ---------------------------
  | Total energy                  :        -769.24803311 Ha      -20932.30400487 eV
  | Total energy, T -> 0          :        -769.24803311 Ha      -20932.30400487 eV  <-- do not rely on this value for anything but (periodic) metals
  | Electronic free energy        :        -769.24803311 Ha      -20932.30400487 eV

  Derived energy quantities:
  | Kinetic energy                :         767.64301363 Ha       20888.62920275 eV
  | Electrostatic energy          :       -1424.50353366 Ha      -38762.71337607 eV
  | Energy correction for multipole
  | error in Hartree potential    :          -0.09188315 Ha          -2.50026774 eV
  | Sum of eigenvalues per atom                           :        -372.65411516 eV
  | Total energy (T->0) per atom                          :        -654.13450015 eV  <-- do not rely on this value for anything but (periodic) metals
  | Electronic free energy per atom                       :        -654.13450015 eV

  Self-consistency convergence accuracy:
  | Change of charge density      :  0.1525E+00
  | Change of sum of eigenvalues  : -0.3918E+01 eV
  | Change of total energy        :  0.8806E-01 eV

  End self-consistency iteration #     3       :  max(cpu_time)    wall_clock(cpu1)
  | Time for this iteration                    :        2.613 s           2.612 s
  | Charge density update                      :        0.596 s           0.593 s
  | Density mixing                             :        0.003 s           0.003 s
  | Hartree multipole update                   :        0.007 s           0.007 s
  | Hartree multipole summation                :        0.254 s           0.255 s
  | Integration                                :        1.666 s           1.666 s
[...]
  |------------------------------------------------------
  | Final ELSI Output
  |------------------------------------------------------
  |
  | Physical Properties
  |   Number of electrons       :        0.13200000E+03
  |   Number of spins           :                     1
  |   Number of k-points        :                     1
  |   Number of states          :                   144
  |
  | Matrix Properties
  |   Matrix format             :           BLACS_DENSE
  |   Number of basis functions :                   960
  |   Matrix sparsity           :        0.16655816E-01
  |
  | Computational Details
  |   Parallel mode             :            MULTI_PROC
  |   Number of MPI tasks       :                    56
  |   Solver requested          :                  ELPA
  |   Number of ELSI calls      :                    17
  |
  |------------------------------------------------------
  | ELSI Project (c)  elsi-interchange.org
  |------------------------------------------------------

------------------------------------------------------------
          Post-processing: scaled ZORA corrections to eigenvalues and total energy.

  Date     :  20210620, Time     :  163922.644
------------------------------------------------------------
  Computing correction matrix for scaled ZORA eigenvalues.
  Evaluating scaled zora correction for each Kohn-Sham eigenstate.
  Evaluating scaled zora correction for each Kohn-Sham eigenstate.
  Time get_set_sparse_local_matrix_scalapack:     1.863779 s
  Writing Kohn-Sham eigenvalues.

  State    Occupation    Eigenvalue [Ha]    Eigenvalue [eV]
      1       2.00000          -9.910186         -269.66989
      2       2.00000          -9.909914         -269.66249
      3       2.00000          -9.909767         -269.65848
      4       2.00000          -9.909449         -269.64983
      5       2.00000          -9.908197         -269.61575
      6       2.00000          -9.907923         -269.60830
      7       2.00000          -9.906040         -269.55707
      8       2.00000          -9.905418         -269.54014
      9       2.00000          -9.896893         -269.30817
     10       2.00000          -9.896619         -269.30071
     11       2.00000          -9.895482         -269.26976
     12       2.00000          -9.895100         -269.25938
     13       2.00000          -9.895022         -269.25725
     14       2.00000          -9.894965         -269.25569
     15       2.00000          -9.894776         -269.25057
     16       2.00000          -9.894727         -269.24922
     17       2.00000          -9.894704         -269.24860
     18       2.00000          -9.893680         -269.22073
     19       2.00000          -9.893431         -269.21397
     20       2.00000          -9.892973         -269.20150
     21       2.00000          -0.823400          -22.40586
     22       2.00000          -0.791458          -21.53667
     23       2.00000          -0.783952          -21.33242
     24       2.00000          -0.745608          -20.28901
     25       2.00000          -0.725831          -19.75087
     26       2.00000          -0.711372          -19.35742
     27       2.00000          -0.679987          -18.50339
     28       2.00000          -0.676641          -18.41234
     29       2.00000          -0.658596          -17.92132
     30       2.00000          -0.648304          -17.64125
     31       2.00000          -0.578596          -15.74439
     32       2.00000          -0.573189          -15.59728
     33       2.00000          -0.569824          -15.50569
     34       2.00000          -0.568697          -15.47502
     35       2.00000          -0.527921          -14.36546
     36       2.00000          -0.500366          -13.61564
     37       2.00000          -0.492931          -13.41334
     38       2.00000          -0.484320          -13.17901
     39       2.00000          -0.459769          -12.51096
     40       2.00000          -0.448208          -12.19636
     41       2.00000          -0.430596          -11.71711
     42       2.00000          -0.423803          -11.53226
     43       2.00000          -0.410394          -11.16738
     44       2.00000          -0.400156          -10.88881
     45       2.00000          -0.392434          -10.67868
     46       2.00000          -0.382187          -10.39984
     47       2.00000          -0.379496          -10.32660
     48       2.00000          -0.377908          -10.28339
     49       2.00000          -0.376450          -10.24373
     50       2.00000          -0.364867           -9.92855
     51       2.00000          -0.345775           -9.40901
     52       2.00000          -0.344371           -9.37080
     53       2.00000          -0.336174           -9.14777
     54       2.00000          -0.332165           -9.03868
     55       2.00000          -0.323471           -8.80210
     56       2.00000          -0.320140           -8.71146
     57       2.00000          -0.314215           -8.55023
     58       2.00000          -0.295026           -8.02806
     59       2.00000          -0.282290           -7.68150
     60       2.00000          -0.279045           -7.59321
     61       2.00000          -0.273179           -7.43357
     62       2.00000          -0.266151           -7.24235
     63       2.00000          -0.233818           -6.36252
     64       2.00000          -0.230394           -6.26934
     65       2.00000          -0.208231           -5.66625
     66       2.00000          -0.191472           -5.21021
     67       0.00000          -0.085761           -2.33367
     68       0.00000          -0.071444           -1.94409
     69       0.00000          -0.056228           -1.53004
     70       0.00000          -0.048257           -1.31313
     71       0.00000          -0.006950           -0.18911
     72       0.00000          -0.006242           -0.16985
     73       0.00000          -0.000043           -0.00117
     74       0.00000           0.001506            0.04097
     75       0.00000           0.005897            0.16046
     76       0.00000           0.016633            0.45261
     77       0.00000           0.019000            0.51701
     78       0.00000           0.028254            0.76883
     79       0.00000           0.036154            0.98381
     80       0.00000           0.038068            1.03588
     81       0.00000           0.059876            1.62930
     82       0.00000           0.060639            1.65008
     83       0.00000           0.078666            2.14061
     84       0.00000           0.089928            2.44706
     85       0.00000           0.090893            2.47332
     86       0.00000           0.092463            2.51604
     87       0.00000           0.099556            2.70907
     88       0.00000           0.103021            2.80333
     89       0.00000           0.104667            2.84814
     90       0.00000           0.110813            3.01537
     91       0.00000           0.127002            3.45590
     92       0.00000           0.132797            3.61360
     93       0.00000           0.133891            3.64335
     94       0.00000           0.134368            3.65633
     95       0.00000           0.141390            3.84742
     96       0.00000           0.150657            4.09958
     97       0.00000           0.152885            4.16022
     98       0.00000           0.158431            4.31114
     99       0.00000           0.160619            4.37065
    100       0.00000           0.173341            4.71684
    101       0.00000           0.174351            4.74433
    102       0.00000           0.175070            4.76389
    103       0.00000           0.183428            4.99132
    104       0.00000           0.184636            5.02420
    105       0.00000           0.190077            5.17226
    106       0.00000           0.191812            5.21947
    107       0.00000           0.195087            5.30859
    108       0.00000           0.197414            5.37191
    109       0.00000           0.202938            5.52222
    110       0.00000           0.205739            5.59843
    111       0.00000           0.210153            5.71856
    112       0.00000           0.215817            5.87269
    113       0.00000           0.220013            5.98687
    114       0.00000           0.226684            6.16838
    115       0.00000           0.237466            6.46179
    116       0.00000           0.239407            6.51460
    117       0.00000           0.239788            6.52496
    118       0.00000           0.240844            6.55371
    119       0.00000           0.242610            6.60176
    120       0.00000           0.246847            6.71704
    121       0.00000           0.249783            6.79695
    122       0.00000           0.257326            7.00220
    123       0.00000           0.261437            7.11406
    124       0.00000           0.263061            7.15827
    125       0.00000           0.264702            7.20290
    126       0.00000           0.278292            7.57272
    127       0.00000           0.283255            7.70777
    128       0.00000           0.284733            7.74798
    129       0.00000           0.294688            8.01886
    130       0.00000           0.295922            8.05246
    131       0.00000           0.298371            8.11908
    132       0.00000           0.299800            8.15798
    133       0.00000           0.308215            8.38697
    134       0.00000           0.310765            8.45636
    135       0.00000           0.315779            8.59278
    136       0.00000           0.324263            8.82365
    137       0.00000           0.334027            9.08934
    138       0.00000           0.339302            9.23288
    139       0.00000           0.341962            9.30526
    140       0.00000           0.348440            9.48153
    141       0.00000           0.354264            9.64000
    142       0.00000           0.356460            9.69978
    143       0.00000           0.359529            9.78327
    144       0.00000           0.373354           10.15947

  Highest occupied state (VBM) at     -5.21021216 eV
  | Occupation number:      2.00000000

  Lowest unoccupied state (CBM) at    -2.33367026 eV
  | Occupation number:      0.00000000

  Overall HOMO-LUMO gap:      2.87654190 eV.

  Total energy components:
  | Sum of eigenvalues            :        -437.93689687 Ha      -11916.86928741 eV
  | XC energy correction          :        -112.34341807 Ha       -3057.01994515 eV
  | XC potential correction       :         144.32124517 Ha        3927.18089379 eV
  | Free-atom electrostatic energy:        -334.97918368 Ha       -9115.24736664 eV
  | Hartree energy correction     :         -28.13796023 Ha        -765.67285491 eV
  | Entropy correction            :           0.00000000 Ha           0.00000000 eV
  | ---------------------------
  | Total energy                  :        -769.07621368 Ha      -20927.62856031 eV
  | Total energy, T -> 0          :        -769.07621368 Ha      -20927.62856031 eV  <-- do not rely on this value for anything but (periodic) metals
  | Electronic free energy        :        -769.07621368 Ha      -20927.62856031 eV

  Derived energy quantities:
  | Kinetic energy                :         767.16805779 Ha       20875.70499677 eV
  | Electrostatic energy          :       -1423.90085341 Ha      -38746.31361194 eV
  | Energy correction for multipole
  | error in Hartree potential    :          -0.09370542 Ha          -2.54985418 eV
  | Sum of eigenvalues per atom                           :        -372.40216523 eV
  | Total energy (T->0) per atom                          :        -653.98839251 eV  <-- do not rely on this value for anything but (periodic) metals
  | Electronic free energy per atom                       :        -653.98839251 eV
  End evaluation of scaled ZORA corrections.
  | Time for scaled ZORA corrections           :        2.844 s           2.856 s
------------------------------------------------------------

  Energy and forces in a compact form:
  | Total energy uncorrected      :         -0.209276285603130E+05 eV
  | Total energy corrected        :         -0.209276285603130E+05 eV  <-- do not rely on this value for anything but (periodic) metals
  | Electronic free energy        :         -0.209276285603130E+05 eV

  ------------------------------------ 
  Start decomposition of the XC Energy 
  ------------------------------------ 
  X and C from original XC functional choice 
  Hartree-Fock Energy :          0.000000000 Ha              0.000000000 eV
  X Energy            :       -107.915155617 Ha          -2936.520792865 eV
  C Energy            :         -4.428262453 Ha           -120.499152282 eV
  Total XC Energy     :       -112.343418070 Ha          -3057.019945147 eV
  ------------------------------------ 
  LDA X and C from self-consistent density 
  X Energy LDA        :        -97.743593074 Ha          -2659.738493552 eV
  C Energy LDA        :         -8.527729489 Ha           -232.051326046 eV
  ------------------------------------ 
  End decomposition of the XC Energy 
  ------------------------------------ 

------------------------------------------------------------

------------------------------------------------------------------------------
  Final output of selected total energy values:

  The following output summarizes some interesting total energy values
  at the end of a run (AFTER all relaxation, molecular dynamics, etc.).

  | Total energy of the DFT / Hartree-Fock s.c.f. calculation      :         -20927.628560313 eV
  | Final zero-broadening corrected energy (caution - metals only) :         -20927.628560313 eV
  | For reference only, the value of 1 Hartree used in FHI-aims is :             27.211384500 eV

  Before relying on these values, please be sure to understand exactly which
  total energy value is referred to by a given number. Different objects may
  all carry the same name 'total energy'. Definitions:

  Total energy of the DFT / Hartree-Fock s.c.f. calculation:
  | Note that this energy does not include ANY quantities calculated after the
  | s.c.f. cycle, in particular not ANY RPA, MP2, etc. many-body perturbation terms.
  | Scalar relativistic effects have been included in the 'scaled ZORA' approximation.

  Final zero-broadening corrected energy:
  | For metallic systems only, a broadening of the occupation numbers at the Fermi
  | level can be extrapolated back to zero broadening by an electron-gas inspired
  | formula. For all systems that are not real metals, this value can be
  | meaningless and should be avoided.

------------------------------------------------------------------------------
  Methods described in the following list of references were used in this FHI-aims run.
  If you publish the results, please make sure to cite these reference if they apply.
  FHI-aims is an academic code, and for our developers (often, Ph.D. students
  and postdocs), scientific credit in the community is essential.
  Thank you for helping us!

  For any use of FHI-aims, please cite:

    Volker Blum, Ralf Gehrke, Felix Hanke, Paula Havu, Ville Havu,
    Xinguo Ren, Karsten Reuter, and Matthias Scheffler
    'Ab initio molecular simulations with numeric atom-centered orbitals'
    Computer Physics Communications 180, 2175-2196 (2009)
    http://dx.doi.org/10.1016/j.cpc.2009.06.022


  The scalable eigensolver library ELPA was used in your run.
  ELPA is essential especially for large systems on hundreds or thousands of CPUs.
  For ELPA, please cite:

    Andreas Marek, Volker Blum, Rainer Johanni, Ville Havu, Bruno Lang,
    Thomas Auckenthaler, Alexander Heinecke, Hans-Joachim Bungartz, and Hermann Lederer,
    'The ELPA Library - Scalable Parallel Eigenvalue Solutions
    for Electronic Structure Theory and Computational Science'
    The Journal of Physics: Condensed Matter 26, 213201 (2014).
    http://dx.doi.org/10.1088/0953-8984/26/21/213201


  The ELSI infrastructure was used in your run to solve the Kohn-Sham electronic structure.
  Please check out http://elsi-interchange.org to learn more.
  If scalability is important for your project, please acknowledge ELSI by citing:

    V. W-z. Yu, F. Corsetti, A. Garcia, W. P. Huhn, M. Jacquelin, W. Jia,
    B. Lange, L. Lin, J. Lu, W. Mi, A. Seifitokaldani, A. Vazquez-Mayagoitia,
    C. Yang, H. Yang, and V. Blum
    'ELSI: A unified software interface for Kohn-Sham electronic structure solvers'
    Computer Physics Communications 222, 267-285 (2018).
    http://dx.doi.org/10.1016/j.cpc.2017.09.007


  For the real-space grid partitioning and parallelization used in this calculation, please cite:

    Ville Havu, Volker Blum, Paula Havu, and Matthias Scheffler,
    'Efficient O(N) integration for all-electron electronic structure calculation'
    'using numerically tabulated basis functions'
    Journal of Computational Physics 228, 8367-8379 (2009).
    http://dx.doi.org/10.1016/j.jcp.2009.08.008

  Of course, there are many other important community references, e.g., those cited in the
  above references. Our list is limited to references that describe implementations in the
  FHI-aims code. The reason is purely practical (length of this list) - please credit others as well.

------------------------------------------------------------
          Leaving FHI-aims.
          Date     :  20210620, Time     :  163935.231

          Computational steps:
          | Number of self-consistency cycles          :           16
          | Number of SCF (re)initializations          :            1

          Detailed time accounting                     :  max(cpu_time)    wall_clock(cpu1)
          | Total time                                 :       49.103 s          58.938 s
          | Preparation time                           :        0.197 s           0.191 s
          | Boundary condition initalization           :        0.001 s           0.004 s
          | Grid partitioning                          :        0.420 s           0.424 s
          | Preloading free-atom quantities on grid    :        0.013 s           0.016 s
          | Free-atom superposition energy             :        0.034 s           0.035 s
          | Total time for integrations                :       29.681 s          29.688 s
          | Total time for solution of K.-S. equations :        1.353 s           1.376 s
          | Total time for density update              :        9.533 s           9.498 s
          | Total time for mixing                      :        0.078 s           0.080 s
          | Total time for Hartree multipole update    :        0.108 s           0.113 s
          | Total time for Hartree multipole sum       :        4.157 s           4.162 s
          | Total time for total energy evaluation     :        0.005 s           0.031 s
          | Total time for scaled ZORA corrections     :        2.844 s           2.856 s

          Partial memory accounting:
          | Residual value for overall tracked memory usage across tasks :     0.000000 MB (should be 0.000000 MB)
          | Peak values for overall tracked memory usage (after allocating zora_vector2):
          |   Minimum:       21.998 MB (on task  8)
          |   Maximum:       25.585 MB (on task 29)
          |   Average:       23.964 MB
          | Largest tracked array allocation (hamiltonian_shell):
          |   Minimum:        6.181 MB (on task  1)
          |   Maximum:        6.181 MB (on task  1)
          |   Average:        6.181 MB
          Note:  These values currently only include a subset of arrays which are explicitly tracked.
          The "true" memory usage will be greater.

          Have a nice day.
------------------------------------------------------------
