  MPI-parallelism will be employed.
------------------------------------------------------------
          Invoking FHI-aims ...
          Version 180607
          Git rev. (modified): 6724847 Fix JSON memory corruption in scf_solver
          Compiled on 2018/06/27 at 16:00:31 on host coe.psc.edu.

          When using FHI-aims, please cite the following reference:

          Volker Blum, Ralf Gehrke, Felix Hanke, Paula Havu,
          Ville Havu, Xinguo Ren, Karsten Reuter, and Matthias Scheffler,
          'Ab Initio Molecular Simulations with Numeric Atom-Centered Orbitals',
          Computer Physics Communications 180, 2175-2196 (2009)

          For any questions about FHI-aims, please visit the aimsclub website
          with its forums and wiki. Contributions to both the forums and the
          wiki are warmly encouraged - they are for you, and everyone is welcome there.

------------------------------------------------------------



  Date     :  20210620, Time     :  174958.766
  Time zero on CPU 1             :   0.262689000000000E+00  s.
  Internal wall clock time zero  :           393443398.766  s.

  FHI-aims created a unique identifier for this run for later identification
  aims_uuid : 755E094A-0B31-4567-AFB5-497084B7AAB0

  Using       56 parallel tasks.
  Task        0 on host d024 reporting.
  Task        1 on host d024 reporting.
  Task        2 on host d024 reporting.
  Task        3 on host d024 reporting.
  Task        4 on host d024 reporting.
  Task        5 on host d024 reporting.
  Task        6 on host d024 reporting.
  Task        7 on host d024 reporting.
  Task        8 on host d024 reporting.
  Task        9 on host d024 reporting.
  Task       10 on host d024 reporting.
  Task       11 on host d024 reporting.
  Task       12 on host d024 reporting.
  Task       13 on host d024 reporting.
  Task       14 on host d024 reporting.
  Task       15 on host d024 reporting.
  Task       16 on host d024 reporting.
  Task       17 on host d024 reporting.
  Task       18 on host d024 reporting.
  Task       19 on host d024 reporting.
  Task       20 on host d024 reporting.
  Task       21 on host d024 reporting.
  Task       22 on host d024 reporting.
  Task       23 on host d024 reporting.
  Task       24 on host d024 reporting.
  Task       25 on host d024 reporting.
  Task       26 on host d024 reporting.
  Task       27 on host d024 reporting.
  Task       28 on host d024 reporting.
  Task       29 on host d024 reporting.
  Task       30 on host d024 reporting.
  Task       31 on host d024 reporting.
  Task       32 on host d024 reporting.
  Task       33 on host d024 reporting.
  Task       34 on host d024 reporting.
  Task       35 on host d024 reporting.
  Task       36 on host d024 reporting.
  Task       37 on host d024 reporting.
  Task       38 on host d024 reporting.
  Task       39 on host d024 reporting.
  Task       40 on host d024 reporting.
  Task       41 on host d024 reporting.
  Task       42 on host d024 reporting.
  Task       43 on host d024 reporting.
  Task       44 on host d024 reporting.
  Task       45 on host d024 reporting.
  Task       46 on host d024 reporting.
  Task       47 on host d024 reporting.
  Task       48 on host d024 reporting.
  Task       49 on host d024 reporting.
  Task       50 on host d024 reporting.
  Task       51 on host d024 reporting.
  Task       52 on host d024 reporting.
  Task       53 on host d024 reporting.
  Task       54 on host d024 reporting.
  Task       55 on host d024 reporting.

  Performing system and environment tests:
  *** Environment variable OMP_NUM_THREADS is not set
  *** For performance reasons you might want to set it to 1
  | Stacksize not measured: no C compiler
  | Checking for scalapack...
  | Testing pdtran()...
  | All pdtran() tests passed.

  Obtaining array dimensions for all initial allocations:
  
  -----------------------------------------------------------------------
  Parsing control.in (first pass over file, find array dimensions only).
  The contents of control.in will be repeated verbatim below
  unless switched off by setting 'verbatim_writeout .false.' .
  in the first line of control.in .
  -----------------------------------------------------------------------
  
  #===============================================================================
  # FHI-aims file: ./Runs/es/control.in
  # Created using the Atomic Simulation Environment (ASE)
  # Mon Jan 13 16:04:38 2020
  #===============================================================================
  xc                                 pbe
  relativistic                       zora scalar 1e-12
  occupation_type                    gaussian 0.0001
  load_balancing                     .true.
  KS_method                          scalapack_fast
  mixer                              pulay
  n_max_pulay                        5
  charge_mix_param                   0.4
  sc_accuracy_etot                   1e-6
  sc_accuracy_eev                    1e-4
  sc_accuracy_rho                    1e-6
  sc_iter_limit                      100
  prodbas_threshold                  1e-4
  basis_threshold                    1e-5
  override_illconditioning           .true.
  use_logsbt                         .true.
  spin                               none
  charge                             0
  #===============================================================================
  
  ################################################################################
  #
  #  FHI-aims code project
  # Volker Blum, Fritz Haber Institute Berlin, 2009
  #
  #  Suggested "tight" defaults for H atom (to be pasted into control.in file)
  #
  ################################################################################
    species        H
  #     global species definitions
      nucleus             1
      mass                1.00794
  #
      l_hartree           6
  #
      cut_pot             4.0  2.0  1.0
      basis_dep_cutoff    1e-4
  #
      radial_base         24 7.0
      radial_multiplier   2
      angular_grids       specified
        division   0.1930   50
        division   0.3175  110
        division   0.4293  194
        division   0.5066  302
        division   0.5626  434
  #      division   0.5922  590
  #      division   0.6227  974
  #      division   0.6868 1202
  #      outer_grid  770
        outer_grid  434
  ################################################################################
  #
  #  Definition of "minimal" basis
  #
  ################################################################################
  #     valence basis states
      valence      1  s   1.
  #     ion occupancy
      ion_occ      1  s   0.5
  ################################################################################
  #
  #  Suggested additional basis functions. For production calculations,
  #  uncomment them one after another (the most important basis functions are
  #  listed first).
  #
  #  Basis constructed for dimers: 0.5 A, 0.7 A, 1.0 A, 1.5 A, 2.5 A
  #
  ################################################################################
  #  "First tier" - improvements: -1014.90 meV to -62.69 meV
       hydro 2 s 2.1
       hydro 2 p 3.5
  #  "Second tier" - improvements: -12.89 meV to -1.83 meV
       hydro 1 s 0.85
       hydro 2 p 3.7
       hydro 2 s 1.2
       hydro 3 d 7
  #  "Third tier" - improvements: -0.25 meV to -0.12 meV
  #     hydro 4 f 11.2
  #     hydro 3 p 4.8
  #     hydro 4 d 9
  #     hydro 3 s 3.2
  ################################################################################
  #
  # For methods that use the localized form of the "resolution of identity" for
  # the two-electron Coulomb operator (RI_method LVL), particularly Hartree-Fock and
  # hybrid density functional calculations, the highest accuracy can be obtained by
  # uncommenting the line beginning with "for_aux"  below, thus adding an extra g radial
  # function to the construction of the product basis set for the expansion.
  # See Ref. New J. Phys. 17, 093020 (2015) for more information, particularly Figs. 1 and 6.
  #
  ################################################################################
  #
  # for_aux hydro 5 g 6.0
  ################################################################################
  #
  #  FHI-aims code project
  # Volker Blum, Fritz Haber Institute Berlin, 2009
  #
  #  Suggested "tight" defaults for C atom (to be pasted into control.in file)
  #
  ################################################################################
    species        C
  #     global species definitions
      nucleus             6
      mass                12.0107
  #
      l_hartree           6
  #
      cut_pot             4.0  2.0  1.0
      basis_dep_cutoff    1e-4
  #
      radial_base         34 7.0
      radial_multiplier   2
      angular_grids specified
        division   0.2187   50
        division   0.4416  110
        division   0.6335  194
        division   0.7727  302
        division   0.8772  434
  #      division   0.9334  590
  #      division   0.9924  770
  #      division   1.0230  974
  #      division   1.5020 1202
  #     outer_grid  974
        outer_grid  434
  ################################################################################
  #
  #  Definition of "minimal" basis
  #
  ################################################################################
  #     valence basis states
      valence      2  s   2.
      valence      2  p   2.
  #     ion occupancy
      ion_occ      2  s   1.
      ion_occ      2  p   1.
  ################################################################################
  #
  #  Suggested additional basis functions. For production calculations,
  #  uncomment them one after another (the most important basis functions are
  #  listed first).
  #
  #  Constructed for dimers: 1.0 A, 1.25 A, 1.5 A, 2.0 A, 3.0 A
  #
  ################################################################################
  #  "First tier" - improvements: -1214.57 meV to -155.61 meV
       hydro 2 p 1.7
       hydro 3 d 6
       hydro 2 s 4.9
  #  "Second tier" - improvements: -67.75 meV to -5.23 meV
       hydro 4 f 9.8
       hydro 3 p 5.2
       hydro 3 s 4.3
       hydro 5 g 14.4
       hydro 3 d 6.2
  #  "Third tier" - improvements: -2.43 meV to -0.60 meV
  #     hydro 2 p 5.6
  #     hydro 2 s 1.4
  #     hydro 3 d 4.9
  #     hydro 4 f 11.2
  #  "Fourth tier" - improvements: -0.39 meV to -0.18 meV
  #     hydro 2 p 2.1
  #     hydro 5 g 16.4
  #     hydro 4 d 13.2
  #     hydro 3 s 13.6
  #     hydro 4 f 17.6
  #  Further basis functions - improvements: -0.08 meV and below
  #     hydro 3 s 2
  #     hydro 3 p 6
  #     hydro 4 d 20
  ################################################################################
  #
  # For methods that use the localized form of the "resolution of identity" for
  # the two-electron Coulomb operator (RI_method LVL), particularly Hartree-Fock and
  # hybrid density functional calculations, the highest accuracy can be obtained by
  # uncommenting the line beginning with "for_aux"  below, thus adding an extra g radial
  # function to the construction of the product basis set for the expansion.
  # See Ref. New J. Phys. 17, 093020 (2015) for more information, particularly Figs. 1 and 6.
  #
  ################################################################################
  #
  # for_aux hydro 5 g 6.0
  
  -----------------------------------------------------------------------
  Completed first pass over input file control.in .
  -----------------------------------------------------------------------
  
  
  -----------------------------------------------------------------------
  Parsing geometry.in (first pass over file, find array dimensions only).
  The contents of geometry.in will be repeated verbatim below
  unless switched off by setting 'verbatim_writeout .false.' .
  in the first line of geometry.in .
  -----------------------------------------------------------------------
  
  #=======================================================
  # FHI-aims file: geometry.in
  # Created using the Atomic Simulation Environment (ASE)
  # Sun Jun 20 15:47:02 2021
  #=======================================================
  atom 7.5318949999999996 13.4536680000000004 30.7695870000000014 H
  atom 7.7777810000000001 13.9571839999999998 31.7028570000000016 C
  atom 6.8977040000000001 13.9391300000000005 32.7316199999999995 C
  atom 9.0302399999999992 14.6413089999999997 31.8359909999999999 C
  atom 5.9425210000000002 13.4231429999999996 32.6350380000000015 H
  atom 7.1914569999999998 14.5918679999999998 33.9697669999999974 C
  atom 9.7246559999999995 14.6436980000000005 30.9960360000000001 H
  atom 9.3507909999999992 15.2675260000000002 32.9797340000000005 C
  atom 6.3067529999999996 14.6045359999999995 35.0372610000000009 C
  atom 8.4621309999999994 15.2793829999999993 34.0980599999999967 C
  atom 10.3026549999999997 15.7893740000000005 33.0784949999999967 H
  atom 5.3522730000000003 14.0860740000000000 34.9398309999999981 H
  atom 6.5921960000000004 15.2687570000000008 36.2439400000000020 C
  atom 8.7616599999999991 15.9277219999999993 35.2841639999999970 C
  atom 5.7009259999999999 15.2960030000000007 37.3344290000000001 C
  atom 7.8703890000000003 15.9549669999999999 36.3746530000000021 C
  atom 9.7159429999999993 16.4474620000000016 35.3785680000000013 H
  atom 4.7466429999999997 14.7762619999999991 37.2400250000000028 H
  atom 6.0004540000000004 15.9443420000000007 38.5205330000000004 C
  atom 8.1558329999999994 16.6191880000000012 37.5813320000000033 C
  atom 5.1117949999999999 15.9561989999999998 39.6388589999999965 C
  atom 7.2711290000000002 16.6318559999999991 38.6488250000000022 C
  atom 9.1103129999999997 17.1376500000000007 37.6787619999999990 H
  atom 4.1599310000000003 15.4343500000000002 39.5400980000000004 H
  atom 5.4323459999999999 16.5824159999999985 40.7826019999999971 C
  atom 7.5648819999999999 17.2845939999999985 39.8869720000000001 C
  atom 4.7379300000000004 16.5800260000000002 41.6225570000000005 H
  atom 6.6848049999999999 17.2665399999999991 40.9157360000000025 C
  atom 8.5200650000000007 17.8005819999999986 39.9835550000000026 H
  atom 6.9306910000000004 17.7700560000000003 41.8490060000000028 H
  
  -----------------------------------------------------------------------
  Completed first pass over input file geometry.in .
  -----------------------------------------------------------------------
  

  Basic array size parameters:
  | Number of species                 :        2
  | Number of atoms                   :       30
  | Max. basis fn. angular momentum   :        4
  | Max. atomic/ionic basis occupied n:        2
  | Max. number of basis fn. types    :        2
  | Max. radial fns per species/type  :        8
  | Max. logarithmic grid size        :     1277
  | Max. radial integration grid size :       69
  | Max. angular integration grid size:      434
  | Max. angular grid division number :        8
  | Radial grid for Hartree potential :     1277
  | Number of spin channels           :        1

------------------------------------------------------------
          Reading file control.in.
------------------------------------------------------------
  XC: Using PBE gradient-corrected functionals.
  Scalar relativistic treatment of kinetic energy: ZORA.
  Threshold value for ZORA:   0.100000E-11
  Occupation type: Gaussian broadening, width =   0.100000E-03 eV.
  Since 'load_balancing .true.' is present in control.in, automatically turning on 'use_local_index .true.'.
  Using load balancing for integrations.
  Kohn-Sham electronic structure solved by the ELSI library.
  Using pulay charge density mixing.
  Pulay mixing - number of memorized iterations:    5
  Charge density mixing - mixing parameter:     0.4000
  Convergence accuracy of total energy:  0.1000E-05
  Convergence accuracy of sum of eigenvalues:  0.1000E-03
  Convergence accuracy of self-consistent charge density:  0.1000E-05
  Maximum number of s.-c. iterations  :   100
  * Ignoring prodbas_threshold
  Threshold for basis singularities:  0.1000E-04
  override_illconditioning: Explicitly overriding any built-in checks for an ill-conditioned overlap matrix.
  *** WARNING: If you use this flag, you should really know what you are doing.
  *** DO NOT keep this flag set by default in all your control.in files.
  Using 1D integrations for auxiliary 2-center integrals.
  Spin treatment: No spin polarisation.
  Charge =   0.000000E+00: Neutral system requested explicitly.
 
  Reading configuration options for species H                   .
  | Found nuclear charge :   1.0000
  | Found atomic mass :    1.00794000000000      amu
  | Found l_max for Hartree potential  :   6
  | Found cutoff potl. onset [A], width [A], scale factor :    4.00000    2.00000    1.00000
  | Threshold for basis-dependent cutoff potential is   0.100000E-03
  | Found data for basic radial integration grid :    24 points, outermost radius =    7.000 A
  | Found multiplier for basic radial grid :   2
  | Found angular grid specification: user-specified.
  | Specified grid contains     6 separate shells.
  | Check grid settings after all constraints further below.
  | Found free-atom valence shell :  1 s   1.000
  | No ionic wave fns used. Skipping ion_occ.
  | Found hydrogenic basis function :  2 s   2.100
  | Found hydrogenic basis function :  2 p   3.500
  | Found hydrogenic basis function :  1 s   0.850
  | Found hydrogenic basis function :  2 p   3.700
  | Found hydrogenic basis function :  2 s   1.200
  | Found hydrogenic basis function :  3 d   7.000
  Species H                   : Missing cutoff potential type.
  Defaulting to exp(1/x)/(1-x)^2 type cutoff potential.
  Species H : No 'logarithmic' tag. Using default grid for free atom:
  | Default logarithmic grid data [bohr] : 0.1000E-03 0.1000E+03 0.1012E+01
  Species H : On-site basis accuracy parameter (for Gram-Schmidt orthonormalisation) not specified.
  Using default value basis_acc =  0.1000000E-03.
  Species H                   : Using default innermost maximum threshold i_radial=  2 for radial functions.
  Species H                   : Default cutoff onset for free atom density etc. : 0.40000000E+01 AA.
  Species H                   : Basic radial grid will be enhanced according to radial_multiplier =   2, to contain    49 grid points.
 
  Reading configuration options for species C                   .
  | Found nuclear charge :   6.0000
  | Found atomic mass :    12.0107000000000      amu
  | Found l_max for Hartree potential  :   6
  | Found cutoff potl. onset [A], width [A], scale factor :    4.00000    2.00000    1.00000
  | Threshold for basis-dependent cutoff potential is   0.100000E-03
  | Found data for basic radial integration grid :    34 points, outermost radius =    7.000 A
  | Found multiplier for basic radial grid :   2
  | Found angular grid specification: user-specified.
  | Specified grid contains     6 separate shells.
  | Check grid settings after all constraints further below.
  | Found free-atom valence shell :  2 s   2.000
  | Found free-atom valence shell :  2 p   2.000
  | No ionic wave fns used. Skipping ion_occ.
  | No ionic wave fns used. Skipping ion_occ.
  | Found hydrogenic basis function :  2 p   1.700
  | Found hydrogenic basis function :  3 d   6.000
  | Found hydrogenic basis function :  2 s   4.900
  | Found hydrogenic basis function :  4 f   9.800
  | Found hydrogenic basis function :  3 p   5.200
  | Found hydrogenic basis function :  3 s   4.300
  | Found hydrogenic basis function :  5 g  14.400
  | Found hydrogenic basis function :  3 d   6.200
  Species C                   : Missing cutoff potential type.
  Defaulting to exp(1/x)/(1-x)^2 type cutoff potential.
  Species C : No 'logarithmic' tag. Using default grid for free atom:
  | Default logarithmic grid data [bohr] : 0.1000E-03 0.1000E+03 0.1012E+01
  Species C : On-site basis accuracy parameter (for Gram-Schmidt orthonormalisation) not specified.
  Using default value basis_acc =  0.1000000E-03.
  Species C                   : Using default innermost maximum threshold i_radial=  2 for radial functions.
  Species C                   : Default cutoff onset for free atom density etc. : 0.40000000E+01 AA.
  Species C                   : Basic radial grid will be enhanced according to radial_multiplier =   2, to contain    69 grid points.
 
  Finished reading input file 'control.in'. Consistency checks are next.
 
  MPI_IN_PLACE appears to work with this MPI implementation.
  | Keeping use_mpi_in_place .true. (see manual).
  Target number of points in a grid batch is not set. Defaulting to  100
  Method for grid partitioning is not set. Defaulting to parallel hash+maxmin partitioning.
  Batch size limit is not set. Defaulting to    200
  By default, will store active basis functions for each batch.
  If in need of memory, prune_basis_once .false. can be used to disable this option.
  communication_type for Hartree potential was not specified.
  Defaulting to calc_hartree .
  Pulay mixer: Number of initial linear mixing iterations not set.
  Defaulting to    0 iterations.
  Work space size for distributed Hartree potential not set.
  Defaulting to   0.200000E+03 MB.
  Algorithm-dependent basis array size parameters:
  | n_max_pulay                         :        5
  Presetting      1001 iterations before the initial mixing cycle
  is restarted anyway using the sc_init_iter criterion / keyword.
  Presetting a factor      1.000 between actual scf density residual
  and density convergence criterion sc_accuracy_rho below which sc_init_iter
  takes no effect.
  Calculation of forces was not defined in control.in. No forces will be calculated.
  Geometry relaxation not requested: no relaxation will be performed.
  No accuracy limit for integral partition fn. given. Defaulting to  0.1000E-14.
  No threshold value for u(r) in integrations given. Defaulting to  0.1000E-05.
  No accuracy for occupation numbers given. Defaulting to  0.1000E-12.
  No threshold value for occupation numbers given. Defaulting to  0.0000E+00.
  No accuracy for fermi level given. Defaulting to  0.1000E-19.
  Maximum # of iterations to find E_F not set. Defaulting to  200.
  Will not use alltoall communication since running on < 1024 CPUs.
  partition_type (choice of integration weights) for integrals was not specified.
  | Using a version of the partition function of Stratmann and coworkers ('stratmann_sparse').
  | At each grid point, the set of atoms used to build the partition table is smoothly restricted to
  | only those atoms whose free-atom density would be non-zero at that grid point.
  Partitioning for Hartree potential was not defined. Using partition_type for integrals.
  | Adjusted default value of keyword multip_moments_threshold to:       0.10000000E-11
  | This value may affect high angular momentum components of the Hartree potential in periodic systems.
  No q(lm)/r^(l+1) cutoff set for long-range Hartree potential.
  | Using default value of  0.100000E-09 .
  | Verify using the multipole_threshold keyword.
  Defaulting to new monopole extrapolation.
  Density update method: automatic selection selected.
 * Warning: use_local_index and/or load_balancing needs packed_matrix_format = index
 * Changing the default setting to packed_matrix_format = index
------------------------------------------------------------


------------------------------------------------------------
          Reading geometry description geometry.in.
------------------------------------------------------------
  Input structure read successfully.
  The structure contains       30 atoms,  and a total of        120.000 electrons.

  Input geometry:
  | No unit cell requested.
  | Atomic structure:
  |       Atom                x [A]            y [A]            z [A]
  |    1: Species H             7.53189500       13.45366800       30.76958700
  |    2: Species C             7.77778100       13.95718400       31.70285700
  |    3: Species C             6.89770400       13.93913000       32.73162000
  |    4: Species C             9.03024000       14.64130900       31.83599100
  |    5: Species H             5.94252100       13.42314300       32.63503800
  |    6: Species C             7.19145700       14.59186800       33.96976700
  |    7: Species H             9.72465600       14.64369800       30.99603600
  |    8: Species C             9.35079100       15.26752600       32.97973400
  |    9: Species C             6.30675300       14.60453600       35.03726100
  |   10: Species C             8.46213100       15.27938300       34.09806000
  |   11: Species H            10.30265500       15.78937400       33.07849500
  |   12: Species H             5.35227300       14.08607400       34.93983100
  |   13: Species C             6.59219600       15.26875700       36.24394000
  |   14: Species C             8.76166000       15.92772200       35.28416400
  |   15: Species C             5.70092600       15.29600300       37.33442900
  |   16: Species C             7.87038900       15.95496700       36.37465300
  |   17: Species H             9.71594300       16.44746200       35.37856800
  |   18: Species H             4.74664300       14.77626200       37.24002500
  |   19: Species C             6.00045400       15.94434200       38.52053300
  |   20: Species C             8.15583300       16.61918800       37.58133200
  |   21: Species C             5.11179500       15.95619900       39.63885900
  |   22: Species C             7.27112900       16.63185600       38.64882500
  |   23: Species H             9.11031300       17.13765000       37.67876200
  |   24: Species H             4.15993100       15.43435000       39.54009800
  |   25: Species C             5.43234600       16.58241600       40.78260200
  |   26: Species C             7.56488200       17.28459400       39.88697200
  |   27: Species H             4.73793000       16.58002600       41.62255700
  |   28: Species C             6.68480500       17.26654000       40.91573600
  |   29: Species H             8.52006500       17.80058200       39.98355500
  |   30: Species H             6.93069100       17.77005600       41.84900600
  |

  | The smallest distance between any two atoms is         1.08856841 AA.
  |
  | The first atom of this pair is atom number                     28 .
  | The second atom of this pair is atom number                    30 .

  Number of empty states per atom not set in control.in - providing a guess from actual geometry.
  | Total number of empty states used during s.c.f. cycle:       72
  If you use a very high smearing, use empty_states (per atom!) in control.in to increase this value.

  Structure-dependent array size parameters: 
  | Maximum number of distinct radial functions  :       18
  | Maximum number of basis functions            :      882
  | Number of Kohn-Sham states (occupied + empty):      132
------------------------------------------------------------

------------------------------------------------------------
          Preparing all fixed parts of the calculation.
------------------------------------------------------------
  Determining machine precision:
    2.225073858507201E-308
  Setting up grids for atomic and cluster calculations.

  Creating wave function, potential, and density for free atoms.

  Species: H

  List of occupied orbitals and eigenvalues:
    n    l              occ      energy [Ha]    energy [eV]
    1    0           1.0000        -0.238386        -6.4868


  Species: C

  List of occupied orbitals and eigenvalues:
    n    l              occ      energy [Ha]    energy [eV]
    1    0           2.0000       -10.049212      -273.4530
    2    0           2.0000        -0.504761       -13.7352
    2    1           2.0000        -0.193631        -5.2690

  Creating fixed part of basis set: Ionic, confined, hydrogenic.
 
  H                    hydrogenic:
 
  List of hydrogenic basis orbitals: 
    n    l      effective z      eigenvalue [eV]  inner max. [A]     outer max. [A]     outer radius [A]   
    2    0         2.100000       -14.9965           0.193243           1.317208           5.373006
    2    1         3.500000       -41.6672           0.602369           0.602369           4.056063
    1    0         0.850000        -9.8292           0.624871           0.624871           5.373006
    2    1         3.700000       -46.5653           0.573622           0.573622           3.910002
    2    0         1.200000        -4.5995           0.334980           2.228188           5.505995
    3    2         7.000000       -74.0753           0.680699           0.680699           3.769201
 
 
  C                    hydrogenic:
 
  List of hydrogenic basis orbitals: 
    n    l      effective z      eigenvalue [eV]  inner max. [A]     outer max. [A]     outer radius [A]   
    2    1         1.700000        -9.8152           1.245706           1.245706           5.401630
    3    2         6.000000       -54.4226           0.792453           0.792453           4.178599
    2    0         4.900000       -81.6681           0.082559           0.562749           3.353238
    4    3         9.800000       -81.6681           0.863254           0.863254           4.028125
    3    1         5.200000       -40.8774           0.305389           1.215618           4.898362
    3    0         4.300000       -27.9508           0.091041           1.610311           5.401630
    5    4        14.400000      -112.8510           0.917666           0.917666           3.883070
    3    2         6.200000       -58.1113           0.763917           0.763917           4.077671
 

  Adding cutoff potential to free-atom effective potential.
  Creating atomic-like basis functions for current effective potential.

  Species H                   :

  List of atomic basis orbitals and eigenvalues:
    n    l      energy [Ha]    energy [eV]    outer radius [A]
    1    0        -0.238386        -6.4868       5.373006


  Species C                   :

  List of atomic basis orbitals and eigenvalues:
    n    l      energy [Ha]    energy [eV]    outer radius [A]
    1    0       -10.049212      -273.4530       1.934409
    2    0        -0.504761       -13.7352       5.271162
    2    1        -0.193631        -5.2690       5.401630

  Assembling full basis from fixed parts.
  | Species H :   atomic orbital   1 s accepted.
  | Species H :    hydro orbital   2 s accepted.
  | Species H :    hydro orbital   1 s accepted.
  | Species H :    hydro orbital   2 s accepted.
  | Species H :    hydro orbital   2 p accepted.
  | Species H :    hydro orbital   2 p accepted.
  | Species H :    hydro orbital   3 d accepted.
  | Species C :   atomic orbital   1 s accepted.
  | Species C :    hydro orbital   2 s accepted.
  | Species C :   atomic orbital   2 s accepted.
  | Species C :    hydro orbital   3 s accepted.
  | Species C :    hydro orbital   3 p accepted.
  | Species C :   atomic orbital   2 p accepted.
  | Species C :    hydro orbital   2 p accepted.
  | Species C :    hydro orbital   3 d accepted.
  | Species C :    hydro orbital   3 d accepted.
  | Species C :    hydro orbital   4 f accepted.
  | Species C :    hydro orbital   5 g accepted.
 
  Basis size parameters after reduction:
  | Total number of radial functions:       18
  | Total number of basis functions :      882
 
  Per-task memory consumption for arrays in subroutine allocate_ext:
  |           4.434496MB.
  Testing on-site integration grid accuracy.
  |  Species  Function  <phi|h_atom|phi> (log., in eV)  <phi|h_atom|phi> (rad., in eV)
           1        1                 -6.4870767962                 -6.4871688290
           1        2                 13.5032046589                 13.5028982997
           1        3                 32.8195184817                 32.8119941656
           1        4                 33.8513856511                 33.7670005767 ***
           1        5                 28.8544614965                 28.8544615203
           1        6                 59.6326952547                 59.6327656460
           1        7                 60.2719308513                 60.2719305949
           2        8               -273.4529726040               -273.4529710464
           2        9                -10.7721037319                -10.7721022101
           2       10                 17.6044132601                 17.6044162063
           2       11                 53.7706460658                 53.7706913770
           2       12                 15.0973290362                 15.0973256030
           2       13                  3.8545134692                  3.8545724687
           2       14                 12.1156992592                 12.1182024431
           2       15                 29.4352039302                 29.4352041816
           2       16                 54.8741144708                 54.8740268729
           2       17                 59.3556032049                 59.3556031382
           2       18                 93.4551837154                 93.4551838009
 * Note: Onsite integrals marked "***" above are less accurate than
 * onsite_accuracy_threshold =    0.03000 eV. Usually, this is harmless.
 * When in doubt, tighten the "radial" and/or "radial_multiplier" flags to check.

  Preparing densities etc. for the partition functions (integrals / Hartree potential).

  Preparations completed.
  max(cpu_time)          :      0.217 s.
  Wall clock time (cpu1) :      0.260 s.
------------------------------------------------------------

------------------------------------------------------------
          Begin self-consistency loop: Initialization.

          Date     :  20210620, Time     :  174959.279
------------------------------------------------------------

  Initializing index lists of integration centers etc. from given atomic structure:
  | Number of centers in hartree potential         :        30
  | Number of centers in hartree multipole         :        30
  | Number of centers in electron density summation:        30
  | Number of centers in basis integrals           :        30
  | Number of centers in integrals                 :        30
  | Number of centers in hamiltonian               :        30
  * Using 56 tasks for Scalapack Eigenvalue solver.
  Detailed listing of tasks and assigned k-points:
  (for non-periodic systems, the "k-point" denotes an internal label only)
   Task     0 k-point     1 on d024
   Task     1 k-point     1 on d024
   Task     2 k-point     1 on d024
   Task     3 k-point     1 on d024
   Task     4 k-point     1 on d024
   Task     5 k-point     1 on d024
   Task     6 k-point     1 on d024
   Task     7 k-point     1 on d024
   Task     8 k-point     1 on d024
   Task     9 k-point     1 on d024
   Task    10 k-point     1 on d024
   Task    11 k-point     1 on d024
   Task    12 k-point     1 on d024
   Task    13 k-point     1 on d024
   Task    14 k-point     1 on d024
   Task    15 k-point     1 on d024
   Task    16 k-point     1 on d024
   Task    17 k-point     1 on d024
   Task    18 k-point     1 on d024
   Task    19 k-point     1 on d024
   Task    20 k-point     1 on d024
   Task    21 k-point     1 on d024
   Task    22 k-point     1 on d024
   Task    23 k-point     1 on d024
   Task    24 k-point     1 on d024
   Task    25 k-point     1 on d024
   Task    26 k-point     1 on d024
   Task    27 k-point     1 on d024
   Task    28 k-point     1 on d024
   Task    29 k-point     1 on d024
   Task    30 k-point     1 on d024
   Task    31 k-point     1 on d024
   Task    32 k-point     1 on d024
   Task    33 k-point     1 on d024
   Task    34 k-point     1 on d024
   Task    35 k-point     1 on d024
   Task    36 k-point     1 on d024
   Task    37 k-point     1 on d024
   Task    38 k-point     1 on d024
   Task    39 k-point     1 on d024
   Task    40 k-point     1 on d024
   Task    41 k-point     1 on d024
   Task    42 k-point     1 on d024
   Task    43 k-point     1 on d024
   Task    44 k-point     1 on d024
   Task    45 k-point     1 on d024
   Task    46 k-point     1 on d024
   Task    47 k-point     1 on d024
   Task    48 k-point     1 on d024
   Task    49 k-point     1 on d024
   Task    50 k-point     1 on d024
   Task    51 k-point     1 on d024
   Task    52 k-point     1 on d024
   Task    53 k-point     1 on d024
   Task    54 k-point     1 on d024
   Task    55 k-point     1 on d024
  Tasks:    56 split into      8 X      7 BLACS grid
  Calculating block size based on n_basis =          882 max_nprow =            8 max_npcol =            7
  ScaLAPACK block size set to:           16
  Allocating        0.115 MB for ovlp
  Allocating        0.115 MB for ham
  Allocating        0.115 MB for eigenvec
  Required Scalapack workspace - INTEGER:            1 REAL:             1
  Partitioning the integration grid into batches with parallel hashing+maxmin method.
  | Number of batches:     5181
  | Maximal batch size:     200
  | Minimal batch size:       2
  | Average batch size:      96.276
  | Standard deviation of batch sizes:      34.861

  Integration load balanced across     56 MPI tasks.
  Work distribution over tasks is as follows:
  Task      0 has       9029 integration points.
  Task      1 has       9046 integration points.
  Task      2 has       8832 integration points.
  Task      3 has       9010 integration points.
  Task      4 has       8805 integration points.
  Task      5 has       8863 integration points.
  Task      6 has       8845 integration points.
  Task      7 has       9042 integration points.
  Task      8 has       8883 integration points.
  Task      9 has       8801 integration points.
  Task     10 has       8967 integration points.
  Task     11 has       8859 integration points.
  Task     12 has       8913 integration points.
  Task     13 has       8874 integration points.
  Task     14 has       8971 integration points.
  Task     15 has       9002 integration points.
  Task     16 has       8884 integration points.
  Task     17 has       8972 integration points.
  Task     18 has       8918 integration points.
  Task     19 has       8855 integration points.
  Task     20 has       8774 integration points.
  Task     21 has       8924 integration points.
  Task     22 has       8992 integration points.
  Task     23 has       8846 integration points.
  Task     24 has       9019 integration points.
  Task     25 has       8843 integration points.
  Task     26 has       8863 integration points.
  Task     27 has       8836 integration points.
  Task     28 has       9029 integration points.
  Task     29 has       8935 integration points.
  Task     30 has       8828 integration points.
  Task     31 has       8987 integration points.
  Task     32 has       8837 integration points.
  Task     33 has       8986 integration points.
  Task     34 has       8804 integration points.
  Task     35 has       8992 integration points.
  Task     36 has       8871 integration points.
  Task     37 has       8860 integration points.
  Task     38 has       8993 integration points.
  Task     39 has       8848 integration points.
  Task     40 has       8982 integration points.
  Task     41 has       8753 integration points.
  Task     42 has       8956 integration points.
  Task     43 has       8913 integration points.
  Task     44 has       8872 integration points.
  Task     45 has       8967 integration points.
  Task     46 has       8904 integration points.
  Task     47 has       8935 integration points.
  Task     48 has       8769 integration points.
  Task     49 has       9008 integration points.
  Task     50 has       8978 integration points.
  Task     51 has       8756 integration points.
  Task     52 has       9094 integration points.
  Task     53 has       8825 integration points.
  Task     54 has       8942 integration points.
  Task     55 has       8712 integration points.
  Initializing partition tables, free-atom densities, potentials, etc. across the integration grid (initialize_grid_storage).
  | initialize_grid_storage: Actual outermost partition radius vs. multipole_radius_free
  | (-- VB: in principle, multipole_radius_free should be larger, hence this output)
  | Species        1: Confinement radius =              6.000000000000000 AA, multipole_radius_free =              6.071692442739658 AA.
  | Species        1: outer_partition_radius set to              6.071692442739658 AA .
  | Species        2: Confinement radius =              6.000000000000000 AA, multipole_radius_free =              6.029870734432609 AA.
  | Species        2: outer_partition_radius set to              6.029870734432609 AA .
  | The sparse table of interatomic distances needs     10.5640 kbyte instead of     7.2000 kbyte of memory.
  | Using the partition_type stratmann_smoother will reduce your memory usage.
  | Net number of integration points:   498804
  | of which are non-zero points    :   404519
  Renormalizing the initial density to the exact electron count on the 3D integration grid.
  | Initial density: Formal number of electrons (from input files) :     120.0000000000
  | Integrated number of electrons on 3D grid     :     119.9996966591
  | Charge integration error                      :      -0.0003033409
  | Normalization factor for density and gradient :       1.0000025278
  Obtaining max. number of non-zero basis functions in each batch (get_n_compute_maxes).
  | Maximal number of non-zero basis functions:      694
  Selecting the method for density update.
  Loop over occupied states selected for charge density update.
  Hamiltonian matrix size:
  | Size of matrix non-packed:                389403
  | Size of matrix packed:          362226
  Allocating        0.931 MB for KS_eigenvector
  use_local_index: Max. local matrix size =       310663
  Task:     0 matrix size:      94395
  Task:     1 matrix size:     101025
  Task:     2 matrix size:     119316
  Task:     3 matrix size:     224846
  Task:     4 matrix size:     254976
  Task:     5 matrix size:     263950
  Task:     6 matrix size:     275142
  Task:     7 matrix size:     119316
  Task:     8 matrix size:     191566
  Task:     9 matrix size:     192868
  Task:    10 matrix size:     270461
  Task:    11 matrix size:     310663
  Task:    12 matrix size:     294774
  Task:    13 matrix size:     308057
  Task:    14 matrix size:      94830
  Task:    15 matrix size:      77421
  Task:    16 matrix size:      85905
  Task:    17 matrix size:     230921
  Task:    18 matrix size:     240189
  Task:    19 matrix size:     267872
  Task:    20 matrix size:     220516
  Task:    21 matrix size:      92235
  Task:    22 matrix size:     157015
  Task:    23 matrix size:     131295
  Task:    24 matrix size:     275142
  Task:    25 matrix size:     284740
  Task:    26 matrix size:     250335
  Task:    27 matrix size:     197715
  Task:    28 matrix size:     229493
  Task:    29 matrix size:     270461
  Task:    30 matrix size:     271554
  Task:    31 matrix size:     193298
  Task:    32 matrix size:     192797
  Task:    33 matrix size:      94830
  Task:    34 matrix size:     127765
  Task:    35 matrix size:     267872
  Task:    36 matrix size:     252594
  Task:    37 matrix size:     234905
  Task:    38 matrix size:     101926
  Task:    39 matrix size:     124750
  Task:    40 matrix size:     122265
  Task:    41 matrix size:      64980
  Task:    42 matrix size:     307092
  Task:    43 matrix size:     306839
  Task:    44 matrix size:     273846
  Task:    45 matrix size:     236891
  Task:    46 matrix size:     264675
  Task:    47 matrix size:     177810
  Task:    48 matrix size:     113526
  Task:    49 matrix size:     280786
  Task:    50 matrix size:     258747
  Task:    51 matrix size:     232302
  Task:    52 matrix size:     130816
  Task:    53 matrix size:     135948
  Task:    54 matrix size:      82215
  Task:    55 matrix size:      81406
  Integrating Hamiltonian matrix: batch-based integration.
  Time summed over all CPUs for integration: real work       63.195 s, elapsed      112.480 s
  Time get_set_sparse_local_matrix_scalapack:     0.008809 s
  Start compute_balanced_batch_distribution
  Done load balancing, time needed:      0.005 s
  Integrating overlap matrix with loadbalancing
  Time summed over all CPUs for integration: real work       17.681 s, elapsed       20.357 s
  Time get_set_full_local_matrix_scalapack:     0.007136 s

  Updating Kohn-Sham eigenvalues and eigenvectors using ELSI and the ELPA eigensolver.
  Overlap matrix is not singular
  | Lowest and highest eigenvalues :  0.10E+02,  0.94E-04
  Finished singularity check of overlap matrix
  | Time :     0.045 s
  Finished Cholesky decomposition
  | Time :     0.010 s
  Finished transformation to standard eigenproblem
  | Time :     0.005 s
  Starting ELPA eigensolver
  Finished solving standard eigenproblem
  | Time :     0.041 s
  Finished back-transformation of eigenvectors
  | Time :     0.002 s

  Obtaining occupation numbers and chemical potential using ELSI.
  | Chemical potential (Fermi level):    -8.64090196 eV
  Writing Kohn-Sham eigenvalues.

  State    Occupation    Eigenvalue [Ha]    Eigenvalue [eV]
      1       2.00000         -10.173450         -276.83365
      2       2.00000         -10.173449         -276.83364
      3       2.00000         -10.172436         -276.80607
      4       2.00000         -10.172436         -276.80607
      5       2.00000         -10.171230         -276.77324
      6       2.00000         -10.171229         -276.77323
      7       2.00000         -10.170520         -276.75393
      8       2.00000         -10.170520         -276.75392
      9       2.00000         -10.168925         -276.71052
     10       2.00000         -10.168924         -276.71050
     11       2.00000         -10.168897         -276.70977
     12       2.00000         -10.168897         -276.70976
     13       2.00000         -10.165928         -276.62899
     14       2.00000         -10.165928         -276.62898
     15       2.00000         -10.165322         -276.61247
     16       2.00000         -10.165321         -276.61247
     17       2.00000         -10.164523         -276.59073
     18       2.00000         -10.164292         -276.58447
     19       2.00000          -1.011290          -27.51859
     20       2.00000          -0.996818          -27.12479
     21       2.00000          -0.967704          -26.33258
     22       2.00000          -0.927913          -25.24980
     23       2.00000          -0.920616          -25.05123
     24       2.00000          -0.905652          -24.64405
     25       2.00000          -0.877957          -23.89043
     26       2.00000          -0.873108          -23.75848
     27       2.00000          -0.841144          -22.88869
     28       2.00000          -0.796820          -21.68257
     29       2.00000          -0.773391          -21.04503
     30       2.00000          -0.744445          -20.25738
     31       2.00000          -0.732076          -19.92081
     32       2.00000          -0.724906          -19.72569
     33       2.00000          -0.707031          -19.23930
     34       2.00000          -0.670304          -18.23991
     35       2.00000          -0.662700          -18.03299
     36       2.00000          -0.642892          -17.49399
     37       2.00000          -0.633690          -17.24358
     38       2.00000          -0.624373          -16.99006
     39       2.00000          -0.594617          -16.18035
     40       2.00000          -0.583430          -15.87593
     41       2.00000          -0.581800          -15.83160
     42       2.00000          -0.580800          -15.80437
     43       2.00000          -0.570125          -15.51390
     44       2.00000          -0.564079          -15.34937
     45       2.00000          -0.553511          -15.06180
     46       2.00000          -0.548195          -14.91713
     47       2.00000          -0.531094          -14.45181
     48       2.00000          -0.523017          -14.23201
     49       2.00000          -0.511850          -13.92815
     50       2.00000          -0.511519          -13.91915
     51       2.00000          -0.508833          -13.84606
     52       2.00000          -0.485335          -13.20665
     53       2.00000          -0.477077          -12.98194
     54       2.00000          -0.472103          -12.84657
     55       2.00000          -0.444545          -12.09669
     56       2.00000          -0.432805          -11.77723
     57       2.00000          -0.423694          -11.52931
     58       2.00000          -0.389324          -10.59405
     59       2.00000          -0.388152          -10.56215
     60       2.00000          -0.342207           -9.31194
     61       0.00000          -0.274502           -7.46958
     62       0.00000          -0.221311           -6.02217
     63       0.00000          -0.221098           -6.01637
     64       0.00000          -0.181313           -4.93378
     65       0.00000          -0.168467           -4.58423
     66       0.00000          -0.160687           -4.37253
     67       0.00000          -0.103303           -2.81102
     68       0.00000          -0.067216           -1.82904
     69       0.00000          -0.064003           -1.74161
     70       0.00000          -0.063154           -1.71850
     71       0.00000          -0.046899           -1.27620
     72       0.00000          -0.044276           -1.20480
     73       0.00000          -0.040081           -1.09066
     74       0.00000          -0.023168           -0.63042
     75       0.00000          -0.020343           -0.55355
     76       0.00000          -0.017722           -0.48223
     77       0.00000          -0.016091           -0.43787
     78       0.00000          -0.005760           -0.15674
     79       0.00000          -0.004738           -0.12893
     80       0.00000          -0.002626           -0.07147
     81       0.00000           0.003501            0.09526
     82       0.00000           0.015327            0.41708
     83       0.00000           0.016961            0.46154
     84       0.00000           0.030254            0.82327
     85       0.00000           0.035702            0.97151
     86       0.00000           0.044100            1.20003
     87       0.00000           0.045246            1.23119
     88       0.00000           0.048099            1.30885
     89       0.00000           0.053910            1.46697
     90       0.00000           0.063322            1.72309
     91       0.00000           0.064107            1.74443
     92       0.00000           0.064954            1.76747
     93       0.00000           0.068509            1.86423
     94       0.00000           0.077710            2.11460
     95       0.00000           0.082733            2.25128
     96       0.00000           0.085556            2.32810
     97       0.00000           0.088135            2.39828
     98       0.00000           0.089364            2.43172
     99       0.00000           0.090113            2.45211
    100       0.00000           0.094780            2.57909
    101       0.00000           0.103598            2.81905
    102       0.00000           0.106032            2.88526
    103       0.00000           0.111526            3.03478
    104       0.00000           0.115671            3.14756
    105       0.00000           0.123483            3.36013
    106       0.00000           0.125006            3.40158
    107       0.00000           0.136631            3.71791
    108       0.00000           0.138581            3.77098
    109       0.00000           0.138962            3.78136
    110       0.00000           0.140279            3.81720
    111       0.00000           0.153391            4.17398
    112       0.00000           0.153617            4.18012
    113       0.00000           0.165783            4.51119
    114       0.00000           0.166264            4.52429
    115       0.00000           0.170547            4.64081
    116       0.00000           0.172506            4.69412
    117       0.00000           0.175330            4.77097
    118       0.00000           0.178320            4.85233
    119       0.00000           0.180235            4.90445
    120       0.00000           0.184868            5.03051
    121       0.00000           0.192666            5.24270
    122       0.00000           0.194605            5.29548
    123       0.00000           0.197242            5.36724
    124       0.00000           0.198130            5.39139
    125       0.00000           0.206601            5.62189
    126       0.00000           0.214143            5.82712
    127       0.00000           0.224756            6.11592
    128       0.00000           0.226979            6.17642
    129       0.00000           0.232375            6.32326
    130       0.00000           0.236315            6.43046
    131       0.00000           0.241864            6.58145
    132       0.00000           0.252629            6.87438

  Highest occupied state (VBM) at     -9.31193694 eV
  | Occupation number:      2.00000000

  Lowest unoccupied state (CBM) at    -7.46958196 eV
  | Occupation number:      0.00000000

  Overall HOMO-LUMO gap:      1.84235498 eV.
  Calculating total energy contributions from superposition of free atom densities.

  Total energy components:
  | Sum of eigenvalues            :        -420.19034533 Ha      -11433.96104992 eV
  | XC energy correction          :         -99.53835920 Ha       -2708.57656471 eV
  | XC potential correction       :         127.85118447 Ha        3479.00773933 eV
  | Free-atom electrostatic energy:        -301.86149688 Ha       -8214.06925721 eV
  | Hartree energy correction     :           0.00000000 Ha           0.00000000 eV
  | Entropy correction            :           0.00000000 Ha           0.00000000 eV
  | ---------------------------
  | Total energy                  :        -693.73901694 Ha      -18877.59913251 eV
  | Total energy, T -> 0          :        -693.73901694 Ha      -18877.59913251 eV  <-- do not rely on this value for anything but (periodic) metals
  | Electronic free energy        :        -693.73901694 Ha      -18877.59913251 eV

  Derived energy quantities:
  | Kinetic energy                :         686.87668774 Ha       18690.86565424 eV
  | Electrostatic energy          :       -1281.07734548 Ha      -34859.88822204 eV
  | Energy correction for multipole
  | error in Hartree potential    :           0.00000000 Ha           0.00000000 eV
  | Sum of eigenvalues per atom                           :        -381.13203500 eV
  | Total energy (T->0) per atom                          :        -629.25330442 eV  <-- do not rely on this value for anything but (periodic) metals
  | Electronic free energy per atom                       :        -629.25330442 eV
  Initialize hartree_potential_storage
  Max. number of atoms included in rho_multipole:           30

  End scf initialization - timings             :  max(cpu_time)    wall_clock(cpu1)
  | Time for scf. initialization               :        3.260 s           3.324 s
  | Boundary condition initialization          :        0.001 s           0.005 s
  | Integration                                :        2.401 s           2.407 s
  | Solution of K.-S. eqns.                    :        0.105 s           0.126 s
  | Grid partitioning                          :        0.353 s           0.356 s
  | Preloading free-atom quantities on grid    :        0.013 s           0.016 s
  | Free-atom superposition energy             :        0.030 s           0.031 s
  | Total energy evaluation                    :        0.001 s           0.005 s

  Partial memory accounting:
  | Current value for overall tracked memory usage on task 0  :           1.654 MB
  | Peak value for overall tracked memory usage on task 0     :          16.272 MB after allocating zora_vector2
  | Largest tracked array allocation on task 0 so far         :           3.853 MB  when allocating hamiltonian_shell
  Note:  These values currently only include a subset of arrays which are explicitly tracked.
  The "true" memory usage will be greater.
------------------------------------------------------------

------------------------------------------------------------
          Begin self-consistency iteration #    1

  Date     :  20210620, Time     :  175002.606
------------------------------------------------------------
  Evaluating new KS density.
  Integration grid: deviation in total charge (<rho> - N_e) =  -1.421085E-14
  Pulay mixing of updated and previous charge densities.

  Evaluating partitioned Hartree potential by multipole expansion.
  | Analytical far-field extrapolation by fixed multipoles:
  | Hartree multipole sum: apparent total charge =  -0.308990E-03
  Summing up the Hartree potential with load balancing.
  Time summed over all CPUs for potential: real work       10.708 s, elapsed       16.809 s
  | RMS charge density error from multipole expansion :   0.999703E-02

  Start compute_balanced_batch_distribution
  Done load balancing, time needed:      0.004 s
  Integrating Hamiltonian matrix: batch-based integration with load balancing
  Time summed over all CPUs for integration: real work       67.917 s, elapsed       75.299 s
  Time get_set_full_local_matrix_scalapack:     0.007316 s
  Start compute_balanced_batch_distribution
  Done load balancing, time needed:      0.004 s

  Updating Kohn-Sham eigenvalues and eigenvectors using ELSI and the ELPA eigensolver.
  Finished transformation to standard eigenproblem
  | Time :     0.005 s
  Starting ELPA eigensolver
  Finished solving standard eigenproblem
  | Time :     0.039 s
  Finished back-transformation of eigenvectors
  | Time :     0.002 s

  Obtaining occupation numbers and chemical potential using ELSI.
  | Chemical potential (Fermi level):    -4.21605965 eV
  Writing Kohn-Sham eigenvalues.

  State    Occupation    Eigenvalue [Ha]    Eigenvalue [eV]
      1       2.00000          -9.973819         -271.40142
      2       2.00000          -9.973585         -271.39507
      3       2.00000          -9.968315         -271.25164
      4       2.00000          -9.968315         -271.25164
      5       2.00000          -9.967514         -271.22985
      6       2.00000          -9.967514         -271.22985
      7       2.00000          -9.954719         -270.88169
      8       2.00000          -9.954719         -270.88168
      9       2.00000          -9.954642         -270.87959
     10       2.00000          -9.954642         -270.87959
     11       2.00000          -9.946973         -270.67091
     12       2.00000          -9.946973         -270.67090
     13       2.00000          -9.945709         -270.63650
     14       2.00000          -9.945709         -270.63650
     15       2.00000          -9.944421         -270.60147
     16       2.00000          -9.944421         -270.60147
     17       2.00000          -9.943717         -270.58230
     18       2.00000          -9.943717         -270.58230
     19       2.00000          -0.862622          -23.47313
     20       2.00000          -0.842819          -22.93426
     21       2.00000          -0.813246          -22.12954
     22       2.00000          -0.776373          -21.12618
     23       2.00000          -0.773649          -21.05206
     24       2.00000          -0.756378          -20.58209
     25       2.00000          -0.726973          -19.78195
     26       2.00000          -0.723598          -19.69010
     27       2.00000          -0.689535          -18.76321
     28       2.00000          -0.651556          -17.72973
     29       2.00000          -0.622374          -16.93566
     30       2.00000          -0.604923          -16.46079
     31       2.00000          -0.600656          -16.34467
     32       2.00000          -0.590631          -16.07190
     33       2.00000          -0.563314          -15.32855
     34       2.00000          -0.534321          -14.53960
     35       2.00000          -0.514550          -14.00162
     36       2.00000          -0.504905          -13.73917
     37       2.00000          -0.504213          -13.72034
     38       2.00000          -0.465445          -12.66540
     39       2.00000          -0.464269          -12.63341
     40       2.00000          -0.462608          -12.58822
     41       2.00000          -0.452202          -12.30505
     42       2.00000          -0.436530          -11.87857
     43       2.00000          -0.431624          -11.74509
     44       2.00000          -0.428667          -11.66463
     45       2.00000          -0.423705          -11.52960
     46       2.00000          -0.413306          -11.24663
     47       2.00000          -0.409040          -11.13054
     48       2.00000          -0.385877          -10.50025
     49       2.00000          -0.384928          -10.47442
     50       2.00000          -0.379610          -10.32970
     51       2.00000          -0.357906           -9.73912
     52       2.00000          -0.353386           -9.61613
     53       2.00000          -0.351110           -9.55419
     54       2.00000          -0.342243           -9.31292
     55       2.00000          -0.321590           -8.75090
     56       2.00000          -0.305716           -8.31896
     57       2.00000          -0.296910           -8.07932
     58       2.00000          -0.262867           -7.15298
     59       2.00000          -0.260372           -7.08508
     60       2.00000          -0.214560           -5.83848
     61       0.00000          -0.149239           -4.06100
     62       0.00000          -0.095487           -2.59833
     63       0.00000          -0.094275           -2.56534
     64       0.00000          -0.059142           -1.60933
     65       0.00000          -0.047331           -1.28793
     66       0.00000          -0.041351           -1.12523
     67       0.00000          -0.023199           -0.63127
     68       0.00000          -0.020927           -0.56946
     69       0.00000          -0.019759           -0.53767
     70       0.00000          -0.003863           -0.10512
     71       0.00000          -0.002738           -0.07450
     72       0.00000           0.014843            0.40389
     73       0.00000           0.015775            0.42927
     74       0.00000           0.024643            0.67056
     75       0.00000           0.030646            0.83391
     76       0.00000           0.032685            0.88941
     77       0.00000           0.056860            1.54723
     78       0.00000           0.057694            1.56995
     79       0.00000           0.066514            1.80994
     80       0.00000           0.072457            1.97166
     81       0.00000           0.076300            2.07624
     82       0.00000           0.077934            2.12070
     83       0.00000           0.095770            2.60604
     84       0.00000           0.096297            2.62036
     85       0.00000           0.100830            2.74371
     86       0.00000           0.101282            2.75603
     87       0.00000           0.108582            2.95466
     88       0.00000           0.111448            3.03267
     89       0.00000           0.128843            3.50600
     90       0.00000           0.129969            3.53663
     91       0.00000           0.131852            3.58787
     92       0.00000           0.134861            3.66976
     93       0.00000           0.144656            3.93630
     94       0.00000           0.151335            4.11805
     95       0.00000           0.154192            4.19579
     96       0.00000           0.155258            4.22479
     97       0.00000           0.156742            4.26518
     98       0.00000           0.164570            4.47817
     99       0.00000           0.171474            4.66604
    100       0.00000           0.172673            4.69866
    101       0.00000           0.174190            4.73995
    102       0.00000           0.176512            4.80315
    103       0.00000           0.186428            5.07297
    104       0.00000           0.186437            5.07320
    105       0.00000           0.187014            5.08891
    106       0.00000           0.189371            5.15304
    107       0.00000           0.194020            5.27954
    108       0.00000           0.195637            5.32356
    109       0.00000           0.207364            5.64267
    110       0.00000           0.211221            5.74761
    111       0.00000           0.221189            6.01887
    112       0.00000           0.221201            6.01918
    113       0.00000           0.224025            6.09603
    114       0.00000           0.226500            6.16339
    115       0.00000           0.230093            6.26114
    116       0.00000           0.233599            6.35655
    117       0.00000           0.238392            6.48698
    118       0.00000           0.239433            6.51532
    119       0.00000           0.244110            6.64257
    120       0.00000           0.247184            6.72621
    121       0.00000           0.255824            6.96132
    122       0.00000           0.261776            7.12330
    123       0.00000           0.265739            7.23113
    124       0.00000           0.281826            7.66887
    125       0.00000           0.283213            7.70662
    126       0.00000           0.290236            7.89772
    127       0.00000           0.297479            8.09482
    128       0.00000           0.300918            8.18839
    129       0.00000           0.313931            8.54249
    130       0.00000           0.315477            8.58456
    131       0.00000           0.327022            8.89871
    132       0.00000           0.327958            8.92420

  Highest occupied state (VBM) at     -5.83847936 eV
  | Occupation number:      2.00000000

  Lowest unoccupied state (CBM) at    -4.06100162 eV
  | Occupation number:      0.00000000

  Overall HOMO-LUMO gap:      1.77747774 eV.

  Total energy components:
  | Sum of eigenvalues            :        -400.92105642 Ha      -10909.61702030 eV
  | XC energy correction          :        -100.87046546 Ha       -2744.82502023 eV
  | XC potential correction       :         129.58116033 Ha        3526.08277761 eV
  | Free-atom electrostatic energy:        -301.86149688 Ha       -8214.06925721 eV
  | Hartree energy correction     :         -19.02277352 Ha        -517.63600457 eV
  | Entropy correction            :           0.00000000 Ha           0.00000000 eV
  | ---------------------------
  | Total energy                  :        -693.09463194 Ha      -18860.06452471 eV
  | Total energy, T -> 0          :        -693.09463194 Ha      -18860.06452471 eV  <-- do not rely on this value for anything but (periodic) metals
  | Electronic free energy        :        -693.09463194 Ha      -18860.06452471 eV

  Derived energy quantities:
  | Kinetic energy                :         692.86205136 Ha       18853.73568509 eV
  | Electrostatic energy          :       -1285.08621785 Ha      -34968.97518957 eV
  | Energy correction for multipole
  | error in Hartree potential    :          -0.04307386 Ha          -1.17209943 eV
  | Sum of eigenvalues per atom                           :        -363.65390068 eV
  | Total energy (T->0) per atom                          :        -628.66881749 eV  <-- do not rely on this value for anything but (periodic) metals
  | Electronic free energy per atom                       :        -628.66881749 eV

  Self-consistency convergence accuracy:
  | Change of charge density      :  0.8551E+00
  | Change of sum of eigenvalues  :  0.5243E+03 eV
  | Change of total energy        :  0.1753E+02 eV

  End self-consistency iteration #     1       :  max(cpu_time)    wall_clock(cpu1)
  | Time for this iteration                    :        2.231 s           2.238 s
  | Charge density update                      :        0.492 s           0.494 s
  | Density mixing                             :        0.002 s           0.003 s
  | Hartree multipole update                   :        0.007 s           0.008 s
  | Hartree multipole summation                :        0.307 s           0.309 s
  | Integration                                :        1.347 s           1.347 s
  | Solution of K.-S. eqns.                    :        0.064 s           0.065 s
  | Total energy evaluation                    :        0.000 s           0.000 s

  Partial memory accounting:
  | Current value for overall tracked memory usage on task 0  :           1.654 MB
  | Peak value for overall tracked memory usage on task 0     :          16.272 MB after allocating zora_vector2
  | Largest tracked array allocation on task 0 so far         :           3.853 MB  when allocating hamiltonian_shell
  Note:  These values currently only include a subset of arrays which are explicitly tracked.
  The "true" memory usage will be greater.
------------------------------------------------------------

------------------------------------------------------------
          Begin self-consistency iteration #    2

  Date     :  20210620, Time     :  175004.845
------------------------------------------------------------
  Evaluating new KS density.
  Integration grid: deviation in total charge (<rho> - N_e) =   1.278977E-13
  Pulay mixing of updated and previous charge densities.

  Evaluating partitioned Hartree potential by multipole expansion.
  | Analytical far-field extrapolation by fixed multipoles:
  | Hartree multipole sum: apparent total charge =  -0.308837E-03
  Summing up the Hartree potential with load balancing.
  Time summed over all CPUs for potential: real work       10.792 s, elapsed       12.336 s
  | RMS charge density error from multipole expansion :   0.175520E-01

  Integrating Hamiltonian matrix: batch-based integration with load balancing
  Time summed over all CPUs for integration: real work       69.640 s, elapsed       72.382 s
  Time get_set_full_local_matrix_scalapack:     0.010087 s

  Updating Kohn-Sham eigenvalues and eigenvectors using ELSI and the ELPA eigensolver.
  Finished transformation to standard eigenproblem
  | Time :     0.005 s
  Starting ELPA eigensolver
  Finished solving standard eigenproblem
  | Time :     0.039 s
  Finished back-transformation of eigenvectors
  | Time :     0.002 s

  Obtaining occupation numbers and chemical potential using ELSI.
  | Chemical potential (Fermi level):    -3.38977297 eV
  Highest occupied state (VBM) at     -4.73065661 eV
  | Occupation number:      2.00000000

  Lowest unoccupied state (CBM) at    -2.99702463 eV
  | Occupation number:      0.00000000

  Overall HOMO-LUMO gap:      1.73363199 eV.

  Checking to see if s.c.f. parameters should be adjusted.

  Total energy components:
  | Sum of eigenvalues            :        -394.79552232 Ha      -10742.93275659 eV
  | XC energy correction          :        -101.44585641 Ha       -2760.48220475 eV
  | XC potential correction       :         130.32138793 Ha        3546.22539542 eV
  | Free-atom electrostatic energy:        -301.86149688 Ha       -8214.06925721 eV
  | Hartree energy correction     :         -25.23216957 Ha        -686.60226793 eV
  | Entropy correction            :           0.00000000 Ha           0.00000000 eV
  | ---------------------------
  | Total energy                  :        -693.01365725 Ha      -18857.86109107 eV
  | Total energy, T -> 0          :        -693.01365725 Ha      -18857.86109107 eV  <-- do not rely on this value for anything but (periodic) metals
  | Electronic free energy        :        -693.01365725 Ha      -18857.86109107 eV

  Derived energy quantities:
  | Kinetic energy                :         692.86795633 Ha       18853.89636741 eV
  | Electrostatic energy          :       -1284.43575716 Ha      -34951.27525373 eV
  | Energy correction for multipole
  | error in Hartree potential    :          -0.06964731 Ha          -1.89519965 eV
  | Sum of eigenvalues per atom                           :        -358.09775855 eV
  | Total energy (T->0) per atom                          :        -628.59536970 eV  <-- do not rely on this value for anything but (periodic) metals
  | Electronic free energy per atom                       :        -628.59536970 eV

  Self-consistency convergence accuracy:
  | Change of charge density      :  0.4166E+00
  | Change of sum of eigenvalues  :  0.1667E+03 eV
  | Change of total energy        :  0.2203E+01 eV

  End self-consistency iteration #     2       :  max(cpu_time)    wall_clock(cpu1)
  | Time for this iteration                    :        2.096 s           2.102 s
  | Charge density update                      :        0.496 s           0.496 s
  | Density mixing                             :        0.003 s           0.004 s
  | Hartree multipole update                   :        0.007 s           0.008 s
  | Hartree multipole summation                :        0.223 s           0.223 s
  | Integration                                :        1.295 s           1.295 s
  | Solution of K.-S. eqns.                    :        0.067 s           0.068 s
  | Total energy evaluation                    :        0.002 s           0.003 s

  Partial memory accounting:
  | Current value for overall tracked memory usage on task 0  :           1.654 MB
  | Peak value for overall tracked memory usage on task 0     :          16.272 MB after allocating zora_vector2
  | Largest tracked array allocation on task 0 so far         :           3.853 MB  when allocating hamiltonian_shell
  Note:  These values currently only include a subset of arrays which are explicitly tracked.
  The "true" memory usage will be greater.
------------------------------------------------------------

------------------------------------------------------------
          Begin self-consistency iteration #    3

  Date     :  20210620, Time     :  175006.949
------------------------------------------------------------
  Evaluating new KS density.
  Integration grid: deviation in total charge (<rho> - N_e) =   2.131628E-13
  Pulay mixing of updated and previous charge densities.

  Evaluating partitioned Hartree potential by multipole expansion.
  | Analytical far-field extrapolation by fixed multipoles:
  | Hartree multipole sum: apparent total charge =  -0.308070E-03
  Summing up the Hartree potential with load balancing.
  Time summed over all CPUs for potential: real work       10.777 s, elapsed       12.299 s
  | RMS charge density error from multipole expansion :   0.210338E-01

  Integrating Hamiltonian matrix: batch-based integration with load balancing
  Time summed over all CPUs for integration: real work       69.568 s, elapsed       72.233 s
  Time get_set_full_local_matrix_scalapack:     0.010088 s

  Updating Kohn-Sham eigenvalues and eigenvectors using ELSI and the ELPA eigensolver.
  Finished transformation to standard eigenproblem
  | Time :     0.004 s
  Starting ELPA eigensolver
  Finished solving standard eigenproblem
  | Time :     0.038 s
  Finished back-transformation of eigenvectors
  | Time :     0.001 s

  Obtaining occupation numbers and chemical potential using ELSI.
  | Chemical potential (Fermi level):    -3.35370672 eV
  Highest occupied state (VBM) at     -4.75449819 eV
  | Occupation number:      2.00000000

  Lowest unoccupied state (CBM) at    -3.00737331 eV
  | Occupation number:      0.00000000

  Overall HOMO-LUMO gap:      1.74712487 eV.

  Total energy components:
  | Sum of eigenvalues            :        -394.59443510 Ha      -10737.46089497 eV
  | XC energy correction          :        -101.50832523 Ha       -2762.18206779 eV
  | XC potential correction       :         130.39814196 Ha        3548.31397896 eV
  | Free-atom electrostatic energy:        -301.86149688 Ha       -8214.06925721 eV
  | Hartree energy correction     :         -25.44350130 Ha        -692.35289698 eV
  | Entropy correction            :           0.00000000 Ha           0.00000000 eV
  | ---------------------------
  | Total energy                  :        -693.00961654 Ha      -18857.75113799 eV
  | Total energy, T -> 0          :        -693.00961654 Ha      -18857.75113799 eV  <-- do not rely on this value for anything but (periodic) metals
  | Electronic free energy        :        -693.00961654 Ha      -18857.75113799 eV

  Derived energy quantities:
  | Kinetic energy                :         691.35364277 Ha       18812.68979899 eV
  | Electrostatic energy          :       -1282.85493409 Ha      -34908.25886918 eV
  | Energy correction for multipole
  | error in Hartree potential    :          -0.07885088 Ha          -2.14564153 eV
  | Sum of eigenvalues per atom                           :        -357.91536317 eV
  | Total energy (T->0) per atom                          :        -628.59170460 eV  <-- do not rely on this value for anything but (periodic) metals
  | Electronic free energy per atom                       :        -628.59170460 eV

  Self-consistency convergence accuracy:
  | Change of charge density      :  0.1475E+00
  | Change of sum of eigenvalues  :  0.5472E+01 eV
  | Change of total energy        :  0.1100E+00 eV

  End self-consistency iteration #     3       :  max(cpu_time)    wall_clock(cpu1)
  | Time for this iteration                    :        2.085 s           2.083 s
  | Charge density update                      :        0.495 s           0.493 s
  | Density mixing                             :        0.003 s           0.003 s
  | Hartree multipole update                   :        0.007 s           0.007 s
  | Hartree multipole summation                :        0.222 s           0.222 s
  | Integration                                :        1.292 s           1.292 s
  | Solution of K.-S. eqns.                    :        0.063 s           0.063 s
  | Total energy evaluation                    :        0.000 s           0.001 s

  Partial memory accounting:
  | Current value for overall tracked memory usage on task 0  :           1.654 MB
  | Peak value for overall tracked memory usage on task 0     :          16.272 MB after allocating zora_vector2
  | Largest tracked array allocation on task 0 so far         :           3.853 MB  when allocating hamiltonian_shell
  Note:  These values currently only include a subset of arrays which are explicitly tracked.
  The "true" memory usage will be greater.
------------------------------------------------------------

------------------------------------------------------------
          Begin self-consistency iteration #    4

  Date     :  20210620, Time     :  175009.035
------------------------------------------------------------
  Evaluating new KS density.
  Integration grid: deviation in total charge (<rho> - N_e) =   9.947598E-14
  Pulay mixing of updated and previous charge densities.

  Evaluating partitioned Hartree potential by multipole expansion.
  | Analytical far-field extrapolation by fixed multipoles:
  | Hartree multipole sum: apparent total charge =  -0.308173E-03
  Summing up the Hartree potential with load balancing.
  Time summed over all CPUs for potential: real work       10.775 s, elapsed       12.305 s
  | RMS charge density error from multipole expansion :   0.214388E-01

  Integrating Hamiltonian matrix: batch-based integration with load balancing
  Time summed over all CPUs for integration: real work       69.758 s, elapsed       72.335 s
  Time get_set_full_local_matrix_scalapack:     0.010099 s

  Updating Kohn-Sham eigenvalues and eigenvectors using ELSI and the ELPA eigensolver.
[...]
  | Solution of K.-S. eqns.                    :        0.064 s           0.064 s
  | Total energy evaluation                    :        0.002 s           0.004 s

  Partial memory accounting:
  | Current value for overall tracked memory usage on task 0  :           1.654 MB
  | Peak value for overall tracked memory usage on task 0     :          16.272 MB after allocating zora_vector2
  | Largest tracked array allocation on task 0 so far         :           3.853 MB  when allocating hamiltonian_shell
  Note:  These values currently only include a subset of arrays which are explicitly tracked.
  The "true" memory usage will be greater.
------------------------------------------------------------
  |------------------------------------------------------
  | Final ELSI Output
  |------------------------------------------------------
  |
  | Physical Properties
  |   Number of electrons       :        0.12000000E+03
  |   Number of spins           :                     1
  |   Number of k-points        :                     1
  |   Number of states          :                   132
  |
  | Matrix Properties
  |   Matrix format             :           BLACS_DENSE
  |   Number of basis functions :                   882
  |   Matrix sparsity           :        0.78416401E-01
  |
  | Computational Details
  |   Parallel mode             :            MULTI_PROC
  |   Number of MPI tasks       :                    56
  |   Solver requested          :                  ELPA
  |   Number of ELSI calls      :                    16
  |
  |------------------------------------------------------
  | ELSI Project (c)  elsi-interchange.org
  |------------------------------------------------------

------------------------------------------------------------
          Post-processing: scaled ZORA corrections to eigenvalues and total energy.

  Date     :  20210620, Time     :  175034.157
------------------------------------------------------------
  Computing correction matrix for scaled ZORA eigenvalues.
  Evaluating scaled zora correction for each Kohn-Sham eigenstate.
  Evaluating scaled zora correction for each Kohn-Sham eigenstate.
  Time get_set_sparse_local_matrix_scalapack:     1.576787 s
  Writing Kohn-Sham eigenvalues.

  State    Occupation    Eigenvalue [Ha]    Eigenvalue [eV]
      1       2.00000          -9.909240         -269.64413
      2       2.00000          -9.909005         -269.63776
      3       2.00000          -9.907581         -269.59898
      4       2.00000          -9.907580         -269.59898
      5       2.00000          -9.907121         -269.58647
      6       2.00000          -9.907121         -269.58647
      7       2.00000          -9.898366         -269.34824
      8       2.00000          -9.898366         -269.34824
      9       2.00000          -9.898348         -269.34775
     10       2.00000          -9.898348         -269.34775
     11       2.00000          -9.896916         -269.30877
     12       2.00000          -9.896915         -269.30877
     13       2.00000          -9.896343         -269.29320
     14       2.00000          -9.896343         -269.29319
     15       2.00000          -9.895690         -269.27542
     16       2.00000          -9.895690         -269.27542
     17       2.00000          -9.894968         -269.25577
     18       2.00000          -9.894967         -269.25576
     19       2.00000          -0.812732          -22.11555
     20       2.00000          -0.794592          -21.62194
     21       2.00000          -0.763567          -20.77772
     22       2.00000          -0.722137          -19.65034
     23       2.00000          -0.720817          -19.61444
     24       2.00000          -0.702283          -19.11010
     25       2.00000          -0.672106          -18.28894
     26       2.00000          -0.671819          -18.28111
     27       2.00000          -0.632371          -17.20769
     28       2.00000          -0.598621          -16.28930
     29       2.00000          -0.564380          -15.35757
     30       2.00000          -0.549031          -14.93990
     31       2.00000          -0.544542          -14.81774
     32       2.00000          -0.535136          -14.56180
     33       2.00000          -0.505439          -13.75370
     34       2.00000          -0.477932          -13.00518
     35       2.00000          -0.456958          -12.43445
     36       2.00000          -0.446681          -12.15480
     37       2.00000          -0.444127          -12.08531
     38       2.00000          -0.408544          -11.11705
     39       2.00000          -0.405260          -11.02769
     40       2.00000          -0.401370          -10.92183
     41       2.00000          -0.395645          -10.76604
     42       2.00000          -0.377998          -10.28585
     43       2.00000          -0.372567          -10.13805
     44       2.00000          -0.371801          -10.11722
     45       2.00000          -0.367025           -9.98727
     46       2.00000          -0.364973           -9.93141
     47       2.00000          -0.354921           -9.65789
     48       2.00000          -0.349736           -9.51681
     49       2.00000          -0.324592           -8.83259
     50       2.00000          -0.320040           -8.70872
     51       2.00000          -0.313602           -8.53354
     52       2.00000          -0.297072           -8.08373
     53       2.00000          -0.295129           -8.03088
     54       2.00000          -0.283833           -7.72349
     55       2.00000          -0.281354           -7.65603
     56       2.00000          -0.267629           -7.28255
     57       2.00000          -0.257926           -7.01852
     58       2.00000          -0.224810           -6.11740
     59       2.00000          -0.220485           -5.99971
     60       2.00000          -0.172934           -4.70578
     61       0.00000          -0.108895           -2.96318
     62       0.00000          -0.055150           -1.50070
     63       0.00000          -0.053501           -1.45583
     64       0.00000          -0.020415           -0.55553
     65       0.00000          -0.010029           -0.27291
     66       0.00000          -0.003015           -0.08205
     67       0.00000          -0.000083           -0.00225
     68       0.00000           0.000025            0.00068
     69       0.00000           0.001724            0.04690
     70       0.00000           0.016285            0.44313
     71       0.00000           0.017510            0.47647
     72       0.00000           0.035201            0.95788
     73       0.00000           0.035683            0.97100
     74       0.00000           0.053380            1.45256
     75       0.00000           0.053748            1.46256
     76       0.00000           0.067861            1.84660
     77       0.00000           0.079850            2.17284
     78       0.00000           0.085005            2.31310
     79       0.00000           0.091007            2.47642
     80       0.00000           0.095676            2.60347
     81       0.00000           0.105334            2.86627
     82       0.00000           0.111911            3.04526
     83       0.00000           0.114650            3.11980
     84       0.00000           0.119836            3.26089
     85       0.00000           0.123309            3.35540
     86       0.00000           0.124336            3.38336
     87       0.00000           0.131124            3.56806
     88       0.00000           0.148661            4.04526
     89       0.00000           0.150067            4.08353
     90       0.00000           0.156066            4.24677
     91       0.00000           0.156879            4.26890
     92       0.00000           0.162835            4.43098
     93       0.00000           0.172201            4.68582
     94       0.00000           0.179898            4.89528
     95       0.00000           0.187779            5.10973
     96       0.00000           0.188009            5.11599
     97       0.00000           0.188332            5.12477
     98       0.00000           0.189514            5.15695
     99       0.00000           0.196296            5.34148
    100       0.00000           0.208644            5.67748
    101       0.00000           0.208758            5.68061
    102       0.00000           0.209504            5.70088
    103       0.00000           0.212924            5.79395
    104       0.00000           0.217255            5.91181
    105       0.00000           0.218179            5.93695
    106       0.00000           0.221725            6.03345
    107       0.00000           0.224717            6.11485
    108       0.00000           0.225579            6.13831
    109       0.00000           0.238655            6.49414
    110       0.00000           0.243201            6.61783
    111       0.00000           0.245008            6.66700
    112       0.00000           0.249141            6.77947
    113       0.00000           0.254941            6.93731
    114       0.00000           0.258788            7.04197
    115       0.00000           0.259611            7.06438
    116       0.00000           0.263923            7.18172
    117       0.00000           0.265412            7.22222
    118       0.00000           0.265903            7.23558
    119       0.00000           0.269417            7.33121
    120       0.00000           0.283095            7.70340
    121       0.00000           0.285738            7.77532
    122       0.00000           0.296260            8.06166
    123       0.00000           0.300352            8.17300
    124       0.00000           0.315097            8.57423
    125       0.00000           0.315933            8.59697
    126       0.00000           0.318234            8.65959
    127       0.00000           0.327178            8.90297
    128       0.00000           0.329405            8.96356
    129       0.00000           0.335352            9.12540
    130       0.00000           0.340691            9.27067
    131       0.00000           0.357341            9.72374
    132       0.00000           0.360159            9.80041

  Highest occupied state (VBM) at     -4.70577828 eV
  | Occupation number:      2.00000000

  Lowest unoccupied state (CBM) at    -2.96317875 eV
  | Occupation number:      0.00000000

  Overall HOMO-LUMO gap:      1.74259953 eV.

  Total energy components:
  | Sum of eigenvalues            :        -394.50684619 Ha      -10735.07747961 eV
  | XC energy correction          :        -101.47228274 Ha       -2761.20130183 eV
  | XC potential correction       :         130.35108883 Ha        3547.03359823 eV
  | Free-atom electrostatic energy:        -301.86149688 Ha       -8214.06925721 eV
  | Hartree energy correction     :         -25.36667882 Ha        -690.26245089 eV
  | Entropy correction            :           0.00000000 Ha           0.00000000 eV
  | ---------------------------
  | Total energy                  :        -692.85621580 Ha      -18853.57689131 eV
  | Total energy, T -> 0          :        -692.85621580 Ha      -18853.57689131 eV  <-- do not rely on this value for anything but (periodic) metals
  | Electronic free energy        :        -692.85621580 Ha      -18853.57689131 eV

  Derived energy quantities:
  | Kinetic energy                :         690.98986442 Ha       18802.79088622 eV
  | Electrostatic energy          :       -1282.37379747 Ha      -34895.16647571 eV
  | Energy correction for multipole
  | error in Hartree potential    :          -0.08024909 Ha          -2.18368880 eV
  | Sum of eigenvalues per atom                           :        -357.83591599 eV
  | Total energy (T->0) per atom                          :        -628.45256304 eV  <-- do not rely on this value for anything but (periodic) metals
  | Electronic free energy per atom                       :        -628.45256304 eV
  End evaluation of scaled ZORA corrections.
  | Time for scaled ZORA corrections           :        2.175 s           2.178 s
------------------------------------------------------------

  Energy and forces in a compact form:
  | Total energy uncorrected      :         -0.188535768913141E+05 eV
  | Total energy corrected        :         -0.188535768913141E+05 eV  <-- do not rely on this value for anything but (periodic) metals
  | Electronic free energy        :         -0.188535768913141E+05 eV

  ------------------------------------ 
  Start decomposition of the XC Energy 
  ------------------------------------ 
  X and C from original XC functional choice 
  Hartree-Fock Energy :          0.000000000 Ha              0.000000000 eV
  X Energy            :        -97.470606935 Ha          -2652.310162766 eV
  C Energy            :         -4.001675808 Ha           -108.891139066 eV
  Total XC Energy     :       -101.472282744 Ha          -2761.201301832 eV
  ------------------------------------ 
  LDA X and C from self-consistent density 
  X Energy LDA        :        -88.256250848 Ha          -2401.574776346 eV
  C Energy LDA        :         -7.727881563 Ha           -210.286356577 eV
  ------------------------------------ 
  End decomposition of the XC Energy 
  ------------------------------------ 

------------------------------------------------------------

------------------------------------------------------------------------------
  Final output of selected total energy values:

  The following output summarizes some interesting total energy values
  at the end of a run (AFTER all relaxation, molecular dynamics, etc.).

  | Total energy of the DFT / Hartree-Fock s.c.f. calculation      :         -18853.576891314 eV
  | Final zero-broadening corrected energy (caution - metals only) :         -18853.576891314 eV
  | For reference only, the value of 1 Hartree used in FHI-aims is :             27.211384500 eV

  Before relying on these values, please be sure to understand exactly which
  total energy value is referred to by a given number. Different objects may
  all carry the same name 'total energy'. Definitions:

  Total energy of the DFT / Hartree-Fock s.c.f. calculation:
  | Note that this energy does not include ANY quantities calculated after the
  | s.c.f. cycle, in particular not ANY RPA, MP2, etc. many-body perturbation terms.
  | Scalar relativistic effects have been included in the 'scaled ZORA' approximation.

  Final zero-broadening corrected energy:
  | For metallic systems only, a broadening of the occupation numbers at the Fermi
  | level can be extrapolated back to zero broadening by an electron-gas inspired
  | formula. For all systems that are not real metals, this value can be
  | meaningless and should be avoided.

------------------------------------------------------------------------------
  Methods described in the following list of references were used in this FHI-aims run.
  If you publish the results, please make sure to cite these reference if they apply.
  FHI-aims is an academic code, and for our developers (often, Ph.D. students
  and postdocs), scientific credit in the community is essential.
  Thank you for helping us!

  For any use of FHI-aims, please cite:

    Volker Blum, Ralf Gehrke, Felix Hanke, Paula Havu, Ville Havu,
    Xinguo Ren, Karsten Reuter, and Matthias Scheffler
    'Ab initio molecular simulations with numeric atom-centered orbitals'
    Computer Physics Communications 180, 2175-2196 (2009)
    http://dx.doi.org/10.1016/j.cpc.2009.06.022


  The scalable eigensolver library ELPA was used in your run.
  ELPA is essential especially for large systems on hundreds or thousands of CPUs.
  For ELPA, please cite:

    Andreas Marek, Volker Blum, Rainer Johanni, Ville Havu, Bruno Lang,
    Thomas Auckenthaler, Alexander Heinecke, Hans-Joachim Bungartz, and Hermann Lederer,
    'The ELPA Library - Scalable Parallel Eigenvalue Solutions
    for Electronic Structure Theory and Computational Science'
    The Journal of Physics: Condensed Matter 26, 213201 (2014).
    http://dx.doi.org/10.1088/0953-8984/26/21/213201


  The ELSI infrastructure was used in your run to solve the Kohn-Sham electronic structure.
  Please check out http://elsi-interchange.org to learn more.
  If scalability is important for your project, please acknowledge ELSI by citing:

    V. W-z. Yu, F. Corsetti, A. Garcia, W. P. Huhn, M. Jacquelin, W. Jia,
    B. Lange, L. Lin, J. Lu, W. Mi, A. Seifitokaldani, A. Vazquez-Mayagoitia,
    C. Yang, H. Yang, and V. Blum
    'ELSI: A unified software interface for Kohn-Sham electronic structure solvers'
    Computer Physics Communications 222, 267-285 (2018).
    http://dx.doi.org/10.1016/j.cpc.2017.09.007


  For the real-space grid partitioning and parallelization used in this calculation, please cite:

    Ville Havu, Volker Blum, Paula Havu, and Matthias Scheffler,
    'Efficient O(N) integration for all-electron electronic structure calculation'
    'using numerically tabulated basis functions'
    Journal of Computational Physics 228, 8367-8379 (2009).
    http://dx.doi.org/10.1016/j.jcp.2009.08.008

  Of course, there are many other important community references, e.g., those cited in the
  above references. Our list is limited to references that describe implementations in the
  FHI-aims code. The reason is purely practical (length of this list) - please credit others as well.

------------------------------------------------------------
          Leaving FHI-aims.
          Date     :  20210620, Time     :  175036.381

          Computational steps:
          | Number of self-consistency cycles          :           15
          | Number of SCF (re)initializations          :            1

          Detailed time accounting                     :  max(cpu_time)    wall_clock(cpu1)
          | Total time                                 :       37.348 s          37.615 s
          | Preparation time                           :        0.217 s           0.260 s
          | Boundary condition initalization           :        0.001 s           0.005 s
          | Grid partitioning                          :        0.353 s           0.356 s
          | Preloading free-atom quantities on grid    :        0.013 s           0.016 s
          | Free-atom superposition energy             :        0.030 s           0.031 s
          | Total time for integrations                :       21.877 s          21.882 s
          | Total time for solution of K.-S. equations :        1.061 s           1.088 s
          | Total time for density update              :        7.433 s           7.401 s
          | Total time for mixing                      :        0.067 s           0.069 s
          | Total time for Hartree multipole update    :        0.098 s           0.103 s
          | Total time for Hartree multipole sum       :        3.412 s           3.418 s
          | Total time for total energy evaluation     :        0.009 s           0.031 s
          | Total time for scaled ZORA corrections     :        2.175 s           2.178 s

          Partial memory accounting:
          | Residual value for overall tracked memory usage across tasks :     0.000000 MB (should be 0.000000 MB)
          | Peak values for overall tracked memory usage (after allocating zora_vector2):
          |   Minimum:       16.036 MB (on task 42)
          |   Maximum:       18.964 MB (on task 43)
          |   Average:       17.678 MB
          | Largest tracked array allocation (hamiltonian_shell):
          |   Minimum:        3.853 MB (on task  1)
          |   Maximum:        3.853 MB (on task  1)
          |   Average:        3.853 MB
          Note:  These values currently only include a subset of arrays which are explicitly tracked.
          The "true" memory usage will be greater.

          Have a nice day.
------------------------------------------------------------
