  MPI-parallelism will be employed.
------------------------------------------------------------
          Invoking FHI-aims ...
          Version 180607
          Git rev. (modified): 6724847 Fix JSON memory corruption in scf_solver
          Compiled on 2018/06/27 at 16:00:31 on host coe.psc.edu.

          When using FHI-aims, please cite the following reference:

          Volker Blum, Ralf Gehrke, Felix Hanke, Paula Havu,
          Ville Havu, Xinguo Ren, Karsten Reuter, and Matthias Scheffler,
          'Ab Initio Molecular Simulations with Numeric Atom-Centered Orbitals',
          Computer Physics Communications 180, 2175-2196 (2009)

          For any questions about FHI-aims, please visit the aimsclub website
          with its forums and wiki. Contributions to both the forums and the
          wiki are warmly encouraged - they are for you, and everyone is welcome there.

------------------------------------------------------------



  Date     :  20210620, Time     :  163056.071
  Time zero on CPU 1             :   0.213760000000000E+00  s.
  Internal wall clock time zero  :           393438656.071  s.

  FHI-aims created a unique identifier for this run for later identification
  aims_uuid : C275621A-ED74-47F2-A952-17984918C5A2

  Using       56 parallel tasks.
  Task        0 on host d021 reporting.
  Task        1 on host d021 reporting.
  Task        2 on host d021 reporting.
  Task        3 on host d021 reporting.
  Task        4 on host d021 reporting.
  Task        5 on host d021 reporting.
  Task        6 on host d021 reporting.
  Task        7 on host d021 reporting.
  Task        8 on host d021 reporting.
  Task        9 on host d021 reporting.
  Task       10 on host d021 reporting.
  Task       11 on host d021 reporting.
  Task       12 on host d021 reporting.
  Task       13 on host d021 reporting.
  Task       14 on host d021 reporting.
  Task       15 on host d021 reporting.
  Task       16 on host d021 reporting.
  Task       17 on host d021 reporting.
  Task       18 on host d021 reporting.
  Task       19 on host d021 reporting.
  Task       20 on host d021 reporting.
  Task       21 on host d021 reporting.
  Task       22 on host d021 reporting.
  Task       23 on host d021 reporting.
  Task       24 on host d021 reporting.
  Task       25 on host d021 reporting.
  Task       26 on host d021 reporting.
  Task       27 on host d021 reporting.
  Task       28 on host d021 reporting.
  Task       29 on host d021 reporting.
  Task       30 on host d021 reporting.
  Task       31 on host d021 reporting.
  Task       32 on host d021 reporting.
  Task       33 on host d021 reporting.
  Task       34 on host d021 reporting.
  Task       35 on host d021 reporting.
  Task       36 on host d021 reporting.
  Task       37 on host d021 reporting.
  Task       38 on host d021 reporting.
  Task       39 on host d021 reporting.
  Task       40 on host d021 reporting.
  Task       41 on host d021 reporting.
  Task       42 on host d021 reporting.
  Task       43 on host d021 reporting.
  Task       44 on host d021 reporting.
  Task       45 on host d021 reporting.
  Task       46 on host d021 reporting.
  Task       47 on host d021 reporting.
  Task       48 on host d021 reporting.
  Task       49 on host d021 reporting.
  Task       50 on host d021 reporting.
  Task       51 on host d021 reporting.
  Task       52 on host d021 reporting.
  Task       53 on host d021 reporting.
  Task       54 on host d021 reporting.
  Task       55 on host d021 reporting.

  Performing system and environment tests:
  *** Environment variable OMP_NUM_THREADS is not set
  *** For performance reasons you might want to set it to 1
  | Stacksize not measured: no C compiler
  | Checking for scalapack...
  | Testing pdtran()...
  | All pdtran() tests passed.

  Obtaining array dimensions for all initial allocations:
  
  -----------------------------------------------------------------------
  Parsing control.in (first pass over file, find array dimensions only).
  The contents of control.in will be repeated verbatim below
  unless switched off by setting 'verbatim_writeout .false.' .
  in the first line of control.in .
  -----------------------------------------------------------------------
  
  #===============================================================================
  # FHI-aims file: ./Runs/es/control.in
  # Created using the Atomic Simulation Environment (ASE)
  # Mon Jan 13 16:04:38 2020
  #===============================================================================
  xc                                 pbe
  relativistic                       zora scalar 1e-12
  occupation_type                    gaussian 0.0001
  load_balancing                     .true.
  KS_method                          scalapack_fast
  mixer                              pulay
  n_max_pulay                        5
  charge_mix_param                   0.4
  sc_accuracy_etot                   1e-6
  sc_accuracy_eev                    1e-4
  sc_accuracy_rho                    1e-6
  sc_iter_limit                      100
  prodbas_threshold                  1e-4
  basis_threshold                    1e-5
  override_illconditioning           .true.
  use_logsbt                         .true.
  spin                               none
  charge                             0
  #===============================================================================
  
  ################################################################################
  #
  #  FHI-aims code project
  # Volker Blum, Fritz Haber Institute Berlin, 2009
  #
  #  Suggested "tight" defaults for H atom (to be pasted into control.in file)
  #
  ################################################################################
    species        H
  #     global species definitions
      nucleus             1
      mass                1.00794
  #
      l_hartree           6
  #
      cut_pot             4.0  2.0  1.0
      basis_dep_cutoff    1e-4
  #
      radial_base         24 7.0
      radial_multiplier   2
      angular_grids       specified
        division   0.1930   50
        division   0.3175  110
        division   0.4293  194
        division   0.5066  302
        division   0.5626  434
  #      division   0.5922  590
  #      division   0.6227  974
  #      division   0.6868 1202
  #      outer_grid  770
        outer_grid  434
  ################################################################################
  #
  #  Definition of "minimal" basis
  #
  ################################################################################
  #     valence basis states
      valence      1  s   1.
  #     ion occupancy
      ion_occ      1  s   0.5
  ################################################################################
  #
  #  Suggested additional basis functions. For production calculations,
  #  uncomment them one after another (the most important basis functions are
  #  listed first).
  #
  #  Basis constructed for dimers: 0.5 A, 0.7 A, 1.0 A, 1.5 A, 2.5 A
  #
  ################################################################################
  #  "First tier" - improvements: -1014.90 meV to -62.69 meV
       hydro 2 s 2.1
       hydro 2 p 3.5
  #  "Second tier" - improvements: -12.89 meV to -1.83 meV
       hydro 1 s 0.85
       hydro 2 p 3.7
       hydro 2 s 1.2
       hydro 3 d 7
  #  "Third tier" - improvements: -0.25 meV to -0.12 meV
  #     hydro 4 f 11.2
  #     hydro 3 p 4.8
  #     hydro 4 d 9
  #     hydro 3 s 3.2
  ################################################################################
  #
  # For methods that use the localized form of the "resolution of identity" for
  # the two-electron Coulomb operator (RI_method LVL), particularly Hartree-Fock and
  # hybrid density functional calculations, the highest accuracy can be obtained by
  # uncommenting the line beginning with "for_aux"  below, thus adding an extra g radial
  # function to the construction of the product basis set for the expansion.
  # See Ref. New J. Phys. 17, 093020 (2015) for more information, particularly Figs. 1 and 6.
  #
  ################################################################################
  #
  # for_aux hydro 5 g 6.0
  ################################################################################
  #
  #  FHI-aims code project
  # Volker Blum, Fritz Haber Institute Berlin, 2009
  #
  #  Suggested "tight" defaults for C atom (to be pasted into control.in file)
  #
  ################################################################################
    species        C
  #     global species definitions
      nucleus             6
      mass                12.0107
  #
      l_hartree           6
  #
      cut_pot             4.0  2.0  1.0
      basis_dep_cutoff    1e-4
  #
      radial_base         34 7.0
      radial_multiplier   2
      angular_grids specified
        division   0.2187   50
        division   0.4416  110
        division   0.6335  194
        division   0.7727  302
        division   0.8772  434
  #      division   0.9334  590
  #      division   0.9924  770
  #      division   1.0230  974
  #      division   1.5020 1202
  #     outer_grid  974
        outer_grid  434
  ################################################################################
  #
  #  Definition of "minimal" basis
  #
  ################################################################################
  #     valence basis states
      valence      2  s   2.
      valence      2  p   2.
  #     ion occupancy
      ion_occ      2  s   1.
      ion_occ      2  p   1.
  ################################################################################
  #
  #  Suggested additional basis functions. For production calculations,
  #  uncomment them one after another (the most important basis functions are
  #  listed first).
  #
  #  Constructed for dimers: 1.0 A, 1.25 A, 1.5 A, 2.0 A, 3.0 A
  #
  ################################################################################
  #  "First tier" - improvements: -1214.57 meV to -155.61 meV
       hydro 2 p 1.7
       hydro 3 d 6
       hydro 2 s 4.9
  #  "Second tier" - improvements: -67.75 meV to -5.23 meV
       hydro 4 f 9.8
       hydro 3 p 5.2
       hydro 3 s 4.3
       hydro 5 g 14.4
       hydro 3 d 6.2
  #  "Third tier" - improvements: -2.43 meV to -0.60 meV
  #     hydro 2 p 5.6
  #     hydro 2 s 1.4
  #     hydro 3 d 4.9
  #     hydro 4 f 11.2
  #  "Fourth tier" - improvements: -0.39 meV to -0.18 meV
  #     hydro 2 p 2.1
  #     hydro 5 g 16.4
  #     hydro 4 d 13.2
  #     hydro 3 s 13.6
  #     hydro 4 f 17.6
  #  Further basis functions - improvements: -0.08 meV and below
  #     hydro 3 s 2
  #     hydro 3 p 6
  #     hydro 4 d 20
  ################################################################################
  #
  # For methods that use the localized form of the "resolution of identity" for
  # the two-electron Coulomb operator (RI_method LVL), particularly Hartree-Fock and
  # hybrid density functional calculations, the highest accuracy can be obtained by
  # uncommenting the line beginning with "for_aux"  below, thus adding an extra g radial
  # function to the construction of the product basis set for the expansion.
  # See Ref. New J. Phys. 17, 093020 (2015) for more information, particularly Figs. 1 and 6.
  #
  ################################################################################
  #
  # for_aux hydro 5 g 6.0
  
  -----------------------------------------------------------------------
  Completed first pass over input file control.in .
  -----------------------------------------------------------------------
  
  
  -----------------------------------------------------------------------
  Parsing geometry.in (first pass over file, find array dimensions only).
  The contents of geometry.in will be repeated verbatim below
  unless switched off by setting 'verbatim_writeout .false.' .
  in the first line of geometry.in .
  -----------------------------------------------------------------------
  
  #=======================================================
  # FHI-aims file: geometry.in
  # Created using the Atomic Simulation Environment (ASE)
  # Sun Jun 20 15:47:01 2021
  #=======================================================
  atom 20.2956420000000008 26.5695680000000003 35.3405709999999971 C
  atom 19.5885670000000012 25.5174489999999992 35.9891689999999969 C
  atom 19.7513609999999993 27.0961759999999998 34.1473250000000021 C
  atom 21.5102750000000000 27.0588739999999994 35.8222609999999975 C
  atom 18.4591139999999996 24.9985210000000002 35.4825889999999973 C
  atom 19.9989440000000016 25.1220539999999986 36.9219510000000000 H
  atom 18.5138520000000000 26.6002870000000016 33.6392799999999994 C
  atom 20.4540649999999999 28.1109930000000006 33.4416259999999994 C
  atom 21.9166249999999998 26.6505340000000004 36.7450869999999981 H
  atom 22.2004909999999995 28.0144489999999990 35.1077780000000033 C
  atom 17.9633840000000014 24.1696619999999989 35.9838980000000035 H
  atom 17.8767299999999985 25.5229339999999993 34.2776300000000020 C
  atom 17.9610810000000001 27.1795550000000006 32.4636039999999966 C
  atom 19.8765730000000005 28.6299220000000005 32.2425240000000031 C
  atom 21.6901410000000006 28.5355710000000009 33.9628480000000010 C
  atom 23.1732599999999991 28.3453340000000011 35.4746829999999989 H
  atom 16.7013970000000000 24.9864530000000009 33.7212699999999970 C
  atom 16.7396099999999990 26.6825690000000009 32.0009469999999965 C
  atom 18.6866610000000009 28.2064410000000017 31.7842589999999987 C
  atom 20.4349659999999993 29.3898830000000011 31.6955339999999985 H
  atom 22.2479149999999990 29.2930090000000014 33.4083910000000017 H
  atom 16.0056790000000007 23.8070699999999995 34.3259460000000018 C
  atom 16.1342110000000005 25.6194789999999983 32.6202630000000013 C
  atom 16.2842200000000012 27.1219579999999993 31.1125280000000011 H
  atom 18.2715229999999984 28.6204870000000007 30.8642150000000015 H
  atom 14.8497699999999995 24.0835389999999983 35.0345730000000017 C
  atom 16.4274190000000004 22.4444720000000011 34.1985689999999991 C
  atom 15.2078740000000003 25.2172820000000009 32.2138279999999995 H
  atom 14.0978919999999999 23.0906640000000003 35.6480329999999981 C
  atom 14.5380079999999996 25.1235900000000001 35.1213940000000022 H
  atom 15.6396820000000005 21.4515959999999986 34.8471669999999989 C
  atom 17.5913700000000013 21.9990489999999994 33.4826210000000017 C
  atom 13.2026570000000003 23.3700949999999992 36.2057100000000034 H
  atom 14.4771909999999995 21.8147359999999999 35.5689709999999977 C
  atom 16.0198029999999996 20.0999690000000015 34.7886030000000019 C
  atom 17.9096340000000005 20.6737520000000004 33.4650520000000000 C
  atom 18.4923140000000004 22.8898940000000017 32.6978610000000032 C
  atom 13.9062289999999997 21.0239469999999997 36.0540289999999999 H
  atom 15.3951410000000006 19.3782969999999999 35.3145090000000010 H
  atom 17.1052730000000004 19.7148870000000009 34.1209709999999973 C
  atom 18.7839050000000007 20.3388080000000002 32.9079600000000028 H
  atom 18.1208129999999983 23.3912690000000012 31.4387299999999996 C
  atom 19.7604320000000016 23.1970820000000018 33.1927280000000025 C
  atom 17.3941750000000006 18.6643040000000013 34.0742660000000015 H
  atom 16.8639440000000000 23.0654299999999992 30.8238060000000011 C
  atom 18.9911290000000008 24.2656579999999984 30.7462090000000003 C
  atom 20.0595180000000006 22.7874249999999989 34.1568419999999975 H
  atom 20.6175570000000015 24.0133249999999983 32.5075270000000032 C
  atom 16.1963380000000008 22.3697589999999984 31.3270189999999999 H
  atom 16.5030399999999986 23.6161749999999984 29.6364170000000016 C
  atom 18.5866000000000007 24.8515090000000001 29.5163599999999988 C
  atom 20.2611719999999984 24.5882049999999985 31.2952480000000008 C
  atom 21.5931679999999986 24.2441549999999992 32.9370959999999968 H
  atom 15.5359110000000005 23.3646099999999990 29.1973319999999994 H
  atom 17.3355630000000005 24.5432239999999986 28.9643930000000012 C
  atom 19.4520130000000009 25.7752669999999995 28.8575130000000009 C
  atom 21.1119810000000001 25.5009920000000001 30.5778360000000013 C
  atom 16.9411659999999991 25.1510180000000005 27.7579700000000003 C
  atom 18.9933779999999999 26.3666039999999988 27.6876929999999994 C
  atom 20.7246209999999991 26.0506400000000014 29.4460830000000016 C
  atom 22.0806240000000003 25.7475109999999994 31.0137010000000011 H
  atom 15.9743460000000006 24.9047190000000001 27.3177130000000012 H
  atom 17.7909320000000015 26.0649020000000000 27.1430459999999982 C
  atom 19.6402290000000015 27.0872889999999984 27.1881400000000006 H
  atom 21.3726659999999988 26.7601340000000008 28.9270579999999988 H
  atom 17.4861140000000006 26.5404949999999999 26.2099709999999995 H
  
  -----------------------------------------------------------------------
  Completed first pass over input file geometry.in .
  -----------------------------------------------------------------------
  

  Basic array size parameters:
  | Number of species                 :        2
  | Number of atoms                   :       66
  | Max. basis fn. angular momentum   :        4
  | Max. atomic/ionic basis occupied n:        2
  | Max. number of basis fn. types    :        2
  | Max. radial fns per species/type  :        8
  | Max. logarithmic grid size        :     1277
  | Max. radial integration grid size :       69
  | Max. angular integration grid size:      434
  | Max. angular grid division number :        8
  | Radial grid for Hartree potential :     1277
  | Number of spin channels           :        1

------------------------------------------------------------
          Reading file control.in.
------------------------------------------------------------
  XC: Using PBE gradient-corrected functionals.
  Scalar relativistic treatment of kinetic energy: ZORA.
  Threshold value for ZORA:   0.100000E-11
  Occupation type: Gaussian broadening, width =   0.100000E-03 eV.
  Since 'load_balancing .true.' is present in control.in, automatically turning on 'use_local_index .true.'.
  Using load balancing for integrations.
  Kohn-Sham electronic structure solved by the ELSI library.
  Using pulay charge density mixing.
  Pulay mixing - number of memorized iterations:    5
  Charge density mixing - mixing parameter:     0.4000
  Convergence accuracy of total energy:  0.1000E-05
  Convergence accuracy of sum of eigenvalues:  0.1000E-03
  Convergence accuracy of self-consistent charge density:  0.1000E-05
  Maximum number of s.-c. iterations  :   100
  * Ignoring prodbas_threshold
  Threshold for basis singularities:  0.1000E-04
  override_illconditioning: Explicitly overriding any built-in checks for an ill-conditioned overlap matrix.
  *** WARNING: If you use this flag, you should really know what you are doing.
  *** DO NOT keep this flag set by default in all your control.in files.
  Using 1D integrations for auxiliary 2-center integrals.
  Spin treatment: No spin polarisation.
  Charge =   0.000000E+00: Neutral system requested explicitly.
 
  Reading configuration options for species H                   .
  | Found nuclear charge :   1.0000
  | Found atomic mass :    1.00794000000000      amu
  | Found l_max for Hartree potential  :   6
  | Found cutoff potl. onset [A], width [A], scale factor :    4.00000    2.00000    1.00000
  | Threshold for basis-dependent cutoff potential is   0.100000E-03
  | Found data for basic radial integration grid :    24 points, outermost radius =    7.000 A
  | Found multiplier for basic radial grid :   2
  | Found angular grid specification: user-specified.
  | Specified grid contains     6 separate shells.
  | Check grid settings after all constraints further below.
  | Found free-atom valence shell :  1 s   1.000
  | No ionic wave fns used. Skipping ion_occ.
  | Found hydrogenic basis function :  2 s   2.100
  | Found hydrogenic basis function :  2 p   3.500
  | Found hydrogenic basis function :  1 s   0.850
  | Found hydrogenic basis function :  2 p   3.700
  | Found hydrogenic basis function :  2 s   1.200
  | Found hydrogenic basis function :  3 d   7.000
  Species H                   : Missing cutoff potential type.
  Defaulting to exp(1/x)/(1-x)^2 type cutoff potential.
  Species H : No 'logarithmic' tag. Using default grid for free atom:
  | Default logarithmic grid data [bohr] : 0.1000E-03 0.1000E+03 0.1012E+01
  Species H : On-site basis accuracy parameter (for Gram-Schmidt orthonormalisation) not specified.
  Using default value basis_acc =  0.1000000E-03.
  Species H                   : Using default innermost maximum threshold i_radial=  2 for radial functions.
  Species H                   : Default cutoff onset for free atom density etc. : 0.40000000E+01 AA.
  Species H                   : Basic radial grid will be enhanced according to radial_multiplier =   2, to contain    49 grid points.
 
  Reading configuration options for species C                   .
  | Found nuclear charge :   6.0000
  | Found atomic mass :    12.0107000000000      amu
  | Found l_max for Hartree potential  :   6
  | Found cutoff potl. onset [A], width [A], scale factor :    4.00000    2.00000    1.00000
  | Threshold for basis-dependent cutoff potential is   0.100000E-03
  | Found data for basic radial integration grid :    34 points, outermost radius =    7.000 A
  | Found multiplier for basic radial grid :   2
  | Found angular grid specification: user-specified.
  | Specified grid contains     6 separate shells.
  | Check grid settings after all constraints further below.
  | Found free-atom valence shell :  2 s   2.000
  | Found free-atom valence shell :  2 p   2.000
  | No ionic wave fns used. Skipping ion_occ.
  | No ionic wave fns used. Skipping ion_occ.
  | Found hydrogenic basis function :  2 p   1.700
  | Found hydrogenic basis function :  3 d   6.000
  | Found hydrogenic basis function :  2 s   4.900
  | Found hydrogenic basis function :  4 f   9.800
  | Found hydrogenic basis function :  3 p   5.200
  | Found hydrogenic basis function :  3 s   4.300
  | Found hydrogenic basis function :  5 g  14.400
  | Found hydrogenic basis function :  3 d   6.200
  Species C                   : Missing cutoff potential type.
  Defaulting to exp(1/x)/(1-x)^2 type cutoff potential.
  Species C : No 'logarithmic' tag. Using default grid for free atom:
  | Default logarithmic grid data [bohr] : 0.1000E-03 0.1000E+03 0.1012E+01
  Species C : On-site basis accuracy parameter (for Gram-Schmidt orthonormalisation) not specified.
  Using default value basis_acc =  0.1000000E-03.
  Species C                   : Using default innermost maximum threshold i_radial=  2 for radial functions.
  Species C                   : Default cutoff onset for free atom density etc. : 0.40000000E+01 AA.
  Species C                   : Basic radial grid will be enhanced according to radial_multiplier =   2, to contain    69 grid points.
 
  Finished reading input file 'control.in'. Consistency checks are next.
 
  MPI_IN_PLACE appears to work with this MPI implementation.
  | Keeping use_mpi_in_place .true. (see manual).
  Target number of points in a grid batch is not set. Defaulting to  100
  Method for grid partitioning is not set. Defaulting to parallel hash+maxmin partitioning.
  Batch size limit is not set. Defaulting to    200
  By default, will store active basis functions for each batch.
  If in need of memory, prune_basis_once .false. can be used to disable this option.
  communication_type for Hartree potential was not specified.
  Defaulting to calc_hartree .
  Pulay mixer: Number of initial linear mixing iterations not set.
  Defaulting to    0 iterations.
  Work space size for distributed Hartree potential not set.
  Defaulting to   0.200000E+03 MB.
  Algorithm-dependent basis array size parameters:
  | n_max_pulay                         :        5
  Presetting      1001 iterations before the initial mixing cycle
  is restarted anyway using the sc_init_iter criterion / keyword.
  Presetting a factor      1.000 between actual scf density residual
  and density convergence criterion sc_accuracy_rho below which sc_init_iter
  takes no effect.
  Calculation of forces was not defined in control.in. No forces will be calculated.
  Geometry relaxation not requested: no relaxation will be performed.
  No accuracy limit for integral partition fn. given. Defaulting to  0.1000E-14.
  No threshold value for u(r) in integrations given. Defaulting to  0.1000E-05.
  No accuracy for occupation numbers given. Defaulting to  0.1000E-12.
  No threshold value for occupation numbers given. Defaulting to  0.0000E+00.
  No accuracy for fermi level given. Defaulting to  0.1000E-19.
  Maximum # of iterations to find E_F not set. Defaulting to  200.
  Will not use alltoall communication since running on < 1024 CPUs.
  partition_type (choice of integration weights) for integrals was not specified.
  | Using a version of the partition function of Stratmann and coworkers ('stratmann_sparse').
  | At each grid point, the set of atoms used to build the partition table is smoothly restricted to
  | only those atoms whose free-atom density would be non-zero at that grid point.
  Partitioning for Hartree potential was not defined. Using partition_type for integrals.
  | Adjusted default value of keyword multip_moments_threshold to:       0.10000000E-11
  | This value may affect high angular momentum components of the Hartree potential in periodic systems.
  No q(lm)/r^(l+1) cutoff set for long-range Hartree potential.
  | Using default value of  0.100000E-09 .
  | Verify using the multipole_threshold keyword.
  Defaulting to new monopole extrapolation.
  Density update method: automatic selection selected.
 * Warning: use_local_index and/or load_balancing needs packed_matrix_format = index
 * Changing the default setting to packed_matrix_format = index
------------------------------------------------------------


------------------------------------------------------------
          Reading geometry description geometry.in.
------------------------------------------------------------
  Input structure read successfully.
  The structure contains       66 atoms,  and a total of        276.000 electrons.

  Input geometry:
  | No unit cell requested.
  | Atomic structure:
  |       Atom                x [A]            y [A]            z [A]
  |    1: Species C            20.29564200       26.56956800       35.34057100
  |    2: Species C            19.58856700       25.51744900       35.98916900
  |    3: Species C            19.75136100       27.09617600       34.14732500
  |    4: Species C            21.51027500       27.05887400       35.82226100
  |    5: Species C            18.45911400       24.99852100       35.48258900
  |    6: Species H            19.99894400       25.12205400       36.92195100
  |    7: Species C            18.51385200       26.60028700       33.63928000
  |    8: Species C            20.45406500       28.11099300       33.44162600
  |    9: Species H            21.91662500       26.65053400       36.74508700
  |   10: Species C            22.20049100       28.01444900       35.10777800
  |   11: Species H            17.96338400       24.16966200       35.98389800
  |   12: Species C            17.87673000       25.52293400       34.27763000
  |   13: Species C            17.96108100       27.17955500       32.46360400
  |   14: Species C            19.87657300       28.62992200       32.24252400
  |   15: Species C            21.69014100       28.53557100       33.96284800
  |   16: Species H            23.17326000       28.34533400       35.47468300
  |   17: Species C            16.70139700       24.98645300       33.72127000
  |   18: Species C            16.73961000       26.68256900       32.00094700
  |   19: Species C            18.68666100       28.20644100       31.78425900
  |   20: Species H            20.43496600       29.38988300       31.69553400
  |   21: Species H            22.24791500       29.29300900       33.40839100
  |   22: Species C            16.00567900       23.80707000       34.32594600
  |   23: Species C            16.13421100       25.61947900       32.62026300
  |   24: Species H            16.28422000       27.12195800       31.11252800
  |   25: Species H            18.27152300       28.62048700       30.86421500
  |   26: Species C            14.84977000       24.08353900       35.03457300
  |   27: Species C            16.42741900       22.44447200       34.19856900
  |   28: Species H            15.20787400       25.21728200       32.21382800
  |   29: Species C            14.09789200       23.09066400       35.64803300
  |   30: Species H            14.53800800       25.12359000       35.12139400
  |   31: Species C            15.63968200       21.45159600       34.84716700
  |   32: Species C            17.59137000       21.99904900       33.48262100
  |   33: Species H            13.20265700       23.37009500       36.20571000
  |   34: Species C            14.47719100       21.81473600       35.56897100
  |   35: Species C            16.01980300       20.09996900       34.78860300
  |   36: Species C            17.90963400       20.67375200       33.46505200
  |   37: Species C            18.49231400       22.88989400       32.69786100
  |   38: Species H            13.90622900       21.02394700       36.05402900
  |   39: Species H            15.39514100       19.37829700       35.31450900
  |   40: Species C            17.10527300       19.71488700       34.12097100
  |   41: Species H            18.78390500       20.33880800       32.90796000
  |   42: Species C            18.12081300       23.39126900       31.43873000
  |   43: Species C            19.76043200       23.19708200       33.19272800
  |   44: Species H            17.39417500       18.66430400       34.07426600
  |   45: Species C            16.86394400       23.06543000       30.82380600
  |   46: Species C            18.99112900       24.26565800       30.74620900
  |   47: Species H            20.05951800       22.78742500       34.15684200
  |   48: Species C            20.61755700       24.01332500       32.50752700
  |   49: Species H            16.19633800       22.36975900       31.32701900
  |   50: Species C            16.50304000       23.61617500       29.63641700
  |   51: Species C            18.58660000       24.85150900       29.51636000
  |   52: Species C            20.26117200       24.58820500       31.29524800
  |   53: Species H            21.59316800       24.24415500       32.93709600
  |   54: Species H            15.53591100       23.36461000       29.19733200
  |   55: Species C            17.33556300       24.54322400       28.96439300
  |   56: Species C            19.45201300       25.77526700       28.85751300
  |   57: Species C            21.11198100       25.50099200       30.57783600
  |   58: Species C            16.94116600       25.15101800       27.75797000
  |   59: Species C            18.99337800       26.36660400       27.68769300
  |   60: Species C            20.72462100       26.05064000       29.44608300
  |   61: Species H            22.08062400       25.74751100       31.01370100
  |   62: Species H            15.97434600       24.90471900       27.31771300
  |   63: Species C            17.79093200       26.06490200       27.14304600
  |   64: Species H            19.64022900       27.08728900       27.18814000
  |   65: Species H            21.37266600       26.76013400       28.92705800
  |   66: Species H            17.48611400       26.54049500       26.20997100
  |

  | The smallest distance between any two atoms is         1.08760252 AA.
  |
  | The first atom of this pair is atom number                     45 .
  | The second atom of this pair is atom number                    49 .

  Number of empty states per atom not set in control.in - providing a guess from actual geometry.
  | Total number of empty states used during s.c.f. cycle:      162
  If you use a very high smearing, use empty_states (per atom!) in control.in to increase this value.

  Structure-dependent array size parameters: 
  | Maximum number of distinct radial functions  :       18
  | Maximum number of basis functions            :     1998
  | Number of Kohn-Sham states (occupied + empty):      300
------------------------------------------------------------

------------------------------------------------------------
          Preparing all fixed parts of the calculation.
------------------------------------------------------------
  Determining machine precision:
    2.225073858507201E-308
  Setting up grids for atomic and cluster calculations.

  Creating wave function, potential, and density for free atoms.

  Species: H

  List of occupied orbitals and eigenvalues:
    n    l              occ      energy [Ha]    energy [eV]
    1    0           1.0000        -0.238386        -6.4868


  Species: C

  List of occupied orbitals and eigenvalues:
    n    l              occ      energy [Ha]    energy [eV]
    1    0           2.0000       -10.049212      -273.4530
    2    0           2.0000        -0.504761       -13.7352
    2    1           2.0000        -0.193631        -5.2690

  Creating fixed part of basis set: Ionic, confined, hydrogenic.
 
  H                    hydrogenic:
 
  List of hydrogenic basis orbitals: 
    n    l      effective z      eigenvalue [eV]  inner max. [A]     outer max. [A]     outer radius [A]   
    2    0         2.100000       -14.9965           0.193243           1.317208           5.373006
    2    1         3.500000       -41.6672           0.602369           0.602369           4.056063
    1    0         0.850000        -9.8292           0.624871           0.624871           5.373006
    2    1         3.700000       -46.5653           0.573622           0.573622           3.910002
    2    0         1.200000        -4.5995           0.334980           2.228188           5.505995
    3    2         7.000000       -74.0753           0.680699           0.680699           3.769201
 
 
  C                    hydrogenic:
 
  List of hydrogenic basis orbitals: 
    n    l      effective z      eigenvalue [eV]  inner max. [A]     outer max. [A]     outer radius [A]   
    2    1         1.700000        -9.8152           1.245706           1.245706           5.401630
    3    2         6.000000       -54.4226           0.792453           0.792453           4.178599
    2    0         4.900000       -81.6681           0.082559           0.562749           3.353238
    4    3         9.800000       -81.6681           0.863254           0.863254           4.028125
    3    1         5.200000       -40.8774           0.305389           1.215618           4.898362
    3    0         4.300000       -27.9508           0.091041           1.610311           5.401630
    5    4        14.400000      -112.8510           0.917666           0.917666           3.883070
    3    2         6.200000       -58.1113           0.763917           0.763917           4.077671
 

  Adding cutoff potential to free-atom effective potential.
  Creating atomic-like basis functions for current effective potential.

  Species H                   :

  List of atomic basis orbitals and eigenvalues:
    n    l      energy [Ha]    energy [eV]    outer radius [A]
    1    0        -0.238386        -6.4868       5.373006


  Species C                   :

  List of atomic basis orbitals and eigenvalues:
    n    l      energy [Ha]    energy [eV]    outer radius [A]
    1    0       -10.049212      -273.4530       1.934409
    2    0        -0.504761       -13.7352       5.271162
    2    1        -0.193631        -5.2690       5.401630

  Assembling full basis from fixed parts.
  | Species H :   atomic orbital   1 s accepted.
  | Species H :    hydro orbital   2 s accepted.
  | Species H :    hydro orbital   1 s accepted.
  | Species H :    hydro orbital   2 s accepted.
  | Species H :    hydro orbital   2 p accepted.
  | Species H :    hydro orbital   2 p accepted.
  | Species H :    hydro orbital   3 d accepted.
  | Species C :   atomic orbital   1 s accepted.
  | Species C :    hydro orbital   2 s accepted.
  | Species C :   atomic orbital   2 s accepted.
  | Species C :    hydro orbital   3 s accepted.
  | Species C :    hydro orbital   3 p accepted.
  | Species C :   atomic orbital   2 p accepted.
  | Species C :    hydro orbital   2 p accepted.
  | Species C :    hydro orbital   3 d accepted.
  | Species C :    hydro orbital   3 d accepted.
  | Species C :    hydro orbital   4 f accepted.
  | Species C :    hydro orbital   5 g accepted.
 
  Basis size parameters after reduction:
  | Total number of radial functions:       18
  | Total number of basis functions :     1998
 
  Per-task memory consumption for arrays in subroutine allocate_ext:
  |           4.459696MB.
  Testing on-site integration grid accuracy.
  |  Species  Function  <phi|h_atom|phi> (log., in eV)  <phi|h_atom|phi> (rad., in eV)
           1        1                 -6.4870767962                 -6.4871688290
           1        2                 13.5032046589                 13.5028982997
           1        3                 32.8195184817                 32.8119941656
           1        4                 33.8513856511                 33.7670005767 ***
           1        5                 28.8544614965                 28.8544615203
           1        6                 59.6326952547                 59.6327656460
           1        7                 60.2719308513                 60.2719305949
           2        8               -273.4529726040               -273.4529710464
           2        9                -10.7721037319                -10.7721022101
           2       10                 17.6044132601                 17.6044162063
           2       11                 53.7706460658                 53.7706913770
           2       12                 15.0973290362                 15.0973256030
           2       13                  3.8545134692                  3.8545724687
           2       14                 12.1156992592                 12.1182024431
           2       15                 29.4352039302                 29.4352041816
           2       16                 54.8741144708                 54.8740268729
           2       17                 59.3556032049                 59.3556031382
           2       18                 93.4551837154                 93.4551838009
 * Note: Onsite integrals marked "***" above are less accurate than
 * onsite_accuracy_threshold =    0.03000 eV. Usually, this is harmless.
 * When in doubt, tighten the "radial" and/or "radial_multiplier" flags to check.

  Preparing densities etc. for the partition functions (integrals / Hartree potential).

  Preparations completed.
  max(cpu_time)          :      0.195 s.
  Wall clock time (cpu1) :      0.208 s.
------------------------------------------------------------

------------------------------------------------------------
          Begin self-consistency loop: Initialization.

          Date     :  20210620, Time     :  163056.449
------------------------------------------------------------

  Initializing index lists of integration centers etc. from given atomic structure:
  | Number of centers in hartree potential         :        66
  | Number of centers in hartree multipole         :        66
  | Number of centers in electron density summation:        66
  | Number of centers in basis integrals           :        66
  | Number of centers in integrals                 :        66
  | Number of centers in hamiltonian               :        66
  * Using 56 tasks for Scalapack Eigenvalue solver.
  Detailed listing of tasks and assigned k-points:
  (for non-periodic systems, the "k-point" denotes an internal label only)
   Task     0 k-point     1 on d021
   Task     1 k-point     1 on d021
   Task     2 k-point     1 on d021
   Task     3 k-point     1 on d021
   Task     4 k-point     1 on d021
   Task     5 k-point     1 on d021
   Task     6 k-point     1 on d021
   Task     7 k-point     1 on d021
   Task     8 k-point     1 on d021
   Task     9 k-point     1 on d021
   Task    10 k-point     1 on d021
   Task    11 k-point     1 on d021
   Task    12 k-point     1 on d021
   Task    13 k-point     1 on d021
   Task    14 k-point     1 on d021
   Task    15 k-point     1 on d021
   Task    16 k-point     1 on d021
   Task    17 k-point     1 on d021
   Task    18 k-point     1 on d021
   Task    19 k-point     1 on d021
   Task    20 k-point     1 on d021
   Task    21 k-point     1 on d021
   Task    22 k-point     1 on d021
   Task    23 k-point     1 on d021
   Task    24 k-point     1 on d021
   Task    25 k-point     1 on d021
   Task    26 k-point     1 on d021
   Task    27 k-point     1 on d021
   Task    28 k-point     1 on d021
   Task    29 k-point     1 on d021
   Task    30 k-point     1 on d021
   Task    31 k-point     1 on d021
   Task    32 k-point     1 on d021
   Task    33 k-point     1 on d021
   Task    34 k-point     1 on d021
   Task    35 k-point     1 on d021
   Task    36 k-point     1 on d021
   Task    37 k-point     1 on d021
   Task    38 k-point     1 on d021
   Task    39 k-point     1 on d021
   Task    40 k-point     1 on d021
   Task    41 k-point     1 on d021
   Task    42 k-point     1 on d021
   Task    43 k-point     1 on d021
   Task    44 k-point     1 on d021
   Task    45 k-point     1 on d021
   Task    46 k-point     1 on d021
   Task    47 k-point     1 on d021
   Task    48 k-point     1 on d021
   Task    49 k-point     1 on d021
   Task    50 k-point     1 on d021
   Task    51 k-point     1 on d021
   Task    52 k-point     1 on d021
   Task    53 k-point     1 on d021
   Task    54 k-point     1 on d021
   Task    55 k-point     1 on d021
  Tasks:    56 split into      8 X      7 BLACS grid
  Calculating block size based on n_basis =         1998 max_nprow =            8 max_npcol =            7
  ScaLAPACK block size set to:           16
  Allocating        0.590 MB for ovlp
  Allocating        0.590 MB for ham
  Allocating        0.590 MB for eigenvec
  Required Scalapack workspace - INTEGER:            1 REAL:             1
  Partitioning the integration grid into batches with parallel hashing+maxmin method.
  | Number of batches:     9413
  | Maximal batch size:     200
  | Minimal batch size:       4
  | Average batch size:     117.505
  | Standard deviation of batch sizes:      35.496

  Integration load balanced across     56 MPI tasks.
  Work distribution over tasks is as follows:
  Task      0 has      19786 integration points.
  Task      1 has      19912 integration points.
  Task      2 has      19649 integration points.
  Task      3 has      19924 integration points.
  Task      4 has      19637 integration points.
  Task      5 has      19779 integration points.
  Task      6 has      19674 integration points.
  Task      7 has      19846 integration points.
  Task      8 has      19783 integration points.
  Task      9 has      19666 integration points.
  Task     10 has      19849 integration points.
  Task     11 has      19733 integration points.
  Task     12 has      19776 integration points.
  Task     13 has      19679 integration points.
  Task     14 has      19810 integration points.
  Task     15 has      19861 integration points.
  Task     16 has      19615 integration points.
  Task     17 has      19886 integration points.
  Task     18 has      19642 integration points.
  Task     19 has      19771 integration points.
  Task     20 has      19716 integration points.
  Task     21 has      19883 integration points.
  Task     22 has      19758 integration points.
  Task     23 has      19577 integration points.
  Task     24 has      19784 integration points.
  Task     25 has      19686 integration points.
  Task     26 has      19735 integration points.
  Task     27 has      19650 integration points.
  Task     28 has      19934 integration points.
  Task     29 has      19825 integration points.
  Task     30 has      19684 integration points.
  Task     31 has      19803 integration points.
  Task     32 has      19709 integration points.
  Task     33 has      19794 integration points.
  Task     34 has      19633 integration points.
  Task     35 has      19873 integration points.
  Task     36 has      19845 integration points.
  Task     37 has      19661 integration points.
  Task     38 has      19810 integration points.
  Task     39 has      19657 integration points.
  Task     40 has      19695 integration points.
  Task     41 has      19666 integration points.
  Task     42 has      19861 integration points.
  Task     43 has      19740 integration points.
  Task     44 has      19691 integration points.
  Task     45 has      19834 integration points.
  Task     46 has      19734 integration points.
  Task     47 has      19778 integration points.
  Task     48 has      19703 integration points.
  Task     49 has      19799 integration points.
  Task     50 has      19710 integration points.
  Task     51 has      19694 integration points.
  Task     52 has      19755 integration points.
  Task     53 has      19699 integration points.
  Task     54 has      19835 integration points.
  Task     55 has      19587 integration points.
  Initializing partition tables, free-atom densities, potentials, etc. across the integration grid (initialize_grid_storage).
  | initialize_grid_storage: Actual outermost partition radius vs. multipole_radius_free
  | (-- VB: in principle, multipole_radius_free should be larger, hence this output)
  | Species        1: Confinement radius =              6.000000000000000 AA, multipole_radius_free =              6.071692442739658 AA.
  | Species        1: outer_partition_radius set to              6.071692442739658 AA .
  | Species        2: Confinement radius =              6.000000000000000 AA, multipole_radius_free =              6.029870734432609 AA.
  | Species        2: outer_partition_radius set to              6.029870734432609 AA .
  | The sparse table of interatomic distances needs     51.7480 kbyte instead of    34.8480 kbyte of memory.
  | Using the partition_type stratmann_smoother will reduce your memory usage.
  | Net number of integration points:  1106076
  | of which are non-zero points    :   859955
  Renormalizing the initial density to the exact electron count on the 3D integration grid.
  | Initial density: Formal number of electrons (from input files) :     276.0000000000
  | Integrated number of electrons on 3D grid     :     275.9999680339
  | Charge integration error                      :      -0.0000319661
  | Normalization factor for density and gradient :       1.0000001158
  Obtaining max. number of non-zero basis functions in each batch (get_n_compute_maxes).
  | Maximal number of non-zero basis functions:     1434
  Selecting the method for density update.
  Loop over occupied states selected for charge density update.
  Hamiltonian matrix size:
  | Size of matrix non-packed:               1997001
  | Size of matrix packed:         1827176
  Allocating        4.795 MB for KS_eigenvector
  use_local_index: Max. local matrix size =      1577995
  Task:     0 matrix size:     277116
  Task:     1 matrix size:     774523
  Task:     2 matrix size:     772266
  Task:     3 matrix size:     725770
  Task:     4 matrix size:     967062
  Task:     5 matrix size:    1155384
  Task:     6 matrix size:    1489044
  Task:     7 matrix size:     554983
  Task:     8 matrix size:    1197800
  Task:     9 matrix size:    1058801
  Task:    10 matrix size:    1108042
  Task:    11 matrix size:    1050319
  Task:    12 matrix size:    1577995
  Task:    13 matrix size:    1127378
  Task:    14 matrix size:     419978
  Task:    15 matrix size:     176715
  Task:    16 matrix size:     351537
  Task:    17 matrix size:     495335
  Task:    18 matrix size:     241165
  Task:    19 matrix size:     935927
  Task:    20 matrix size:     666326
  Task:    21 matrix size:     577889
  Task:    22 matrix size:     694044
  Task:    23 matrix size:     639362
  Task:    24 matrix size:    1263162
  Task:    25 matrix size:     975731
  Task:    26 matrix size:    1230289
  Task:    27 matrix size:     883996
  Task:    28 matrix size:     374370
  Task:    29 matrix size:     215496
  Task:    30 matrix size:     550320
  Task:    31 matrix size:    1115184
  Task:    32 matrix size:    1337178
  Task:    33 matrix size:     984974
  Task:    34 matrix size:    1040575
  Task:    35 matrix size:     578795
  Task:    36 matrix size:     317680
  Task:    37 matrix size:     554812
  Task:    38 matrix size:    1285792
  Task:    39 matrix size:     852423
  Task:    40 matrix size:     975875
  Task:    41 matrix size:     731026
  Task:    42 matrix size:    1248984
  Task:    43 matrix size:    1020803
  Task:    44 matrix size:     928340
  Task:    45 matrix size:    1414099
  Task:    46 matrix size:     959870
  Task:    47 matrix size:    1015827
  Task:    48 matrix size:     872280
  Task:    49 matrix size:    1016106
  Task:    50 matrix size:     553467
  Task:    51 matrix size:     378753
  Task:    52 matrix size:     633583
  Task:    53 matrix size:     398947
  Task:    54 matrix size:     409937
  Task:    55 matrix size:     168490
  Integrating Hamiltonian matrix: batch-based integration.
  Time summed over all CPUs for integration: real work      309.247 s, elapsed      671.598 s
  Time get_set_sparse_local_matrix_scalapack:     0.031784 s
  Start compute_balanced_batch_distribution
  Done load balancing, time needed:      0.011 s
  Integrating overlap matrix with loadbalancing
  Time summed over all CPUs for integration: real work       91.058 s, elapsed      108.608 s
  Time get_set_full_local_matrix_scalapack:     0.036269 s

  Updating Kohn-Sham eigenvalues and eigenvectors using ELSI and the ELPA eigensolver.
  Overlap matrix is not singular
  | Lowest and highest eigenvalues :  0.16E+02,  0.85E-04
  Finished singularity check of overlap matrix
  | Time :     0.151 s
  Finished Cholesky decomposition
  | Time :     0.033 s
  Finished transformation to standard eigenproblem
  | Time :     0.031 s
  Starting ELPA eigensolver
  Finished solving standard eigenproblem
  | Time :     0.165 s
  Finished back-transformation of eigenvectors
  | Time :     0.008 s

  Obtaining occupation numbers and chemical potential using ELSI.
  | Chemical potential (Fermi level):    -7.95147726 eV
  Writing Kohn-Sham eigenvalues.

  State    Occupation    Eigenvalue [Ha]    Eigenvalue [eV]
      1       2.00000         -10.180632         -277.02910
      2       2.00000         -10.179133         -276.98830
      3       2.00000         -10.178289         -276.96534
      4       2.00000         -10.177805         -276.95218
      5       2.00000         -10.177424         -276.94180
      6       2.00000         -10.177342         -276.93956
      7       2.00000         -10.177242         -276.93683
      8       2.00000         -10.176885         -276.92712
      9       2.00000         -10.176351         -276.91260
     10       2.00000         -10.174891         -276.87286
     11       2.00000         -10.174301         -276.85680
     12       2.00000         -10.173995         -276.84850
     13       2.00000         -10.173881         -276.84538
     14       2.00000         -10.173549         -276.83634
     15       2.00000         -10.173337         -276.83058
     16       2.00000         -10.172742         -276.81440
     17       2.00000         -10.172686         -276.81287
     18       2.00000         -10.172685         -276.81284
     19       2.00000         -10.172674         -276.81255
     20       2.00000         -10.172387         -276.80474
     21       2.00000         -10.172361         -276.80403
     22       2.00000         -10.172356         -276.80389
     23       2.00000         -10.170848         -276.76286
     24       2.00000         -10.170124         -276.74316
     25       2.00000         -10.169876         -276.73642
     26       2.00000         -10.168584         -276.70126
     27       2.00000         -10.168522         -276.69957
     28       2.00000         -10.168255         -276.69229
     29       2.00000         -10.168124         -276.68873
     30       2.00000         -10.168004         -276.68546
     31       2.00000         -10.167858         -276.68151
     32       2.00000         -10.167617         -276.67494
     33       2.00000         -10.167298         -276.66626
     34       2.00000         -10.167107         -276.66105
     35       2.00000         -10.166587         -276.64692
     36       2.00000         -10.166501         -276.64456
     37       2.00000         -10.166174         -276.63566
     38       2.00000         -10.163892         -276.57359
     39       2.00000         -10.163386         -276.55980
     40       2.00000         -10.163161         -276.55368
     41       2.00000         -10.161345         -276.50425
     42       2.00000         -10.160477         -276.48066
     43       2.00000          -1.028295          -27.98134
     44       2.00000          -1.024495          -27.87792
     45       2.00000          -1.015101          -27.62230
     46       2.00000          -0.992534          -27.00821
     47       2.00000          -0.991859          -26.98985
     48       2.00000          -0.974350          -26.51340
     49       2.00000          -0.970035          -26.39599
     50       2.00000          -0.966963          -26.31240
     51       2.00000          -0.946853          -25.76517
     52       2.00000          -0.944850          -25.71068
     53       2.00000          -0.923985          -25.14291
     54       2.00000          -0.907763          -24.70149
     55       2.00000          -0.896654          -24.39920
     56       2.00000          -0.891407          -24.25641
     57       2.00000          -0.887884          -24.16055
     58       2.00000          -0.883222          -24.03370
     59       2.00000          -0.881315          -23.98181
     60       2.00000          -0.872168          -23.73290
     61       2.00000          -0.869439          -23.65864
     62       2.00000          -0.856250          -23.29974
     63       2.00000          -0.848142          -23.07913
     64       2.00000          -0.783091          -21.30899
     65       2.00000          -0.782537          -21.29391
     66       2.00000          -0.780815          -21.24706
     67       2.00000          -0.778922          -21.19554
     68       2.00000          -0.768521          -20.91252
     69       2.00000          -0.767173          -20.87583
     70       2.00000          -0.766503          -20.85760
     71       2.00000          -0.761776          -20.72898
     72       2.00000          -0.759709          -20.67273
     73       2.00000          -0.750496          -20.42204
     74       2.00000          -0.724520          -19.71518
     75       2.00000          -0.691651          -18.82077
     76       2.00000          -0.689595          -18.76484
     77       2.00000          -0.682951          -18.58405
     78       2.00000          -0.675665          -18.38578
     79       2.00000          -0.673351          -18.32280
     80       2.00000          -0.670142          -18.23549
     81       2.00000          -0.663909          -18.06589
     82       2.00000          -0.658542          -17.91984
     83       2.00000          -0.655180          -17.82835
     84       2.00000          -0.652388          -17.75239
     85       2.00000          -0.649188          -17.66530
     86       2.00000          -0.631397          -17.18118
     87       2.00000          -0.629223          -17.12202
     88       2.00000          -0.616060          -16.76386
     89       2.00000          -0.615599          -16.75130
     90       2.00000          -0.609695          -16.59064
     91       2.00000          -0.606848          -16.51317
     92       2.00000          -0.604503          -16.44938
     93       2.00000          -0.600085          -16.32913
     94       2.00000          -0.598408          -16.28351
     95       2.00000          -0.588019          -16.00080
     96       2.00000          -0.585896          -15.94303
     97       2.00000          -0.583899          -15.88871
     98       2.00000          -0.579466          -15.76807
     99       2.00000          -0.578153          -15.73236
    100       2.00000          -0.560550          -15.25333
    101       2.00000          -0.558846          -15.20698
    102       2.00000          -0.552425          -15.03225
    103       2.00000          -0.551293          -15.00145
    104       2.00000          -0.548031          -14.91267
    105       2.00000          -0.543995          -14.80286
    106       2.00000          -0.535993          -14.58511
    107       2.00000          -0.534099          -14.53356
    108       2.00000          -0.533079          -14.50582
    109       2.00000          -0.530916          -14.44697
    110       2.00000          -0.529630          -14.41197
    111       2.00000          -0.525624          -14.30295
    112       2.00000          -0.521570          -14.19263
    113       2.00000          -0.519290          -14.13060
    114       2.00000          -0.517405          -14.07929
    115       2.00000          -0.506005          -13.76909
    116       2.00000          -0.504805          -13.73645
    117       2.00000          -0.499419          -13.58987
    118       2.00000          -0.495961          -13.49580
    119       2.00000          -0.493172          -13.41988
    120       2.00000          -0.491234          -13.36715
    121       2.00000          -0.485769          -13.21846
    122       2.00000          -0.479861          -13.05768
    123       2.00000          -0.478850          -13.03018
    124       2.00000          -0.478023          -13.00768
    125       2.00000          -0.473408          -12.88209
    126       2.00000          -0.448326          -12.19957
    127       2.00000          -0.444069          -12.08374
    128       2.00000          -0.429443          -11.68573
    129       2.00000          -0.424026          -11.53832
    130       2.00000          -0.415655          -11.31055
    131       2.00000          -0.408826          -11.12471
    132       2.00000          -0.404895          -11.01774
    133       2.00000          -0.398741          -10.85029
    134       2.00000          -0.389448          -10.59742
    135       2.00000          -0.384904          -10.47378
    136       2.00000          -0.377239          -10.26520
    137       2.00000          -0.361754           -9.84382
    138       2.00000          -0.354005           -9.63297
    139       0.00000          -0.260842           -7.09788
    140       0.00000          -0.260038           -7.07600
    141       0.00000          -0.241922           -6.58304
    142       0.00000          -0.229814           -6.25357
    143       0.00000          -0.228161           -6.20859
    144       0.00000          -0.216919           -5.90266
    145       0.00000          -0.210182           -5.71936
    146       0.00000          -0.207170           -5.63739
    147       0.00000          -0.194407           -5.29007
    148       0.00000          -0.192312           -5.23309
    149       0.00000          -0.179079           -4.87297
    150       0.00000          -0.161835           -4.40377
    151       0.00000          -0.152637           -4.15346
    152       0.00000          -0.119876           -3.26199
    153       0.00000          -0.108828           -2.96137
    154       0.00000          -0.106616           -2.90117
    155       0.00000          -0.081180           -2.20902
    156       0.00000          -0.077928           -2.12053
    157       0.00000          -0.076556           -2.08320
    158       0.00000          -0.070668           -1.92296
    159       0.00000          -0.069758           -1.89821
    160       0.00000          -0.066513           -1.80990
    161       0.00000          -0.063469           -1.72707
    162       0.00000          -0.056254           -1.53076
    163       0.00000          -0.054785           -1.49076
    164       0.00000          -0.048527           -1.32047
    165       0.00000          -0.045509           -1.23835
    166       0.00000          -0.043196           -1.17542
    167       0.00000          -0.041127           -1.11912
    168       0.00000          -0.037301           -1.01501
    169       0.00000          -0.026977           -0.73409
    170       0.00000          -0.025348           -0.68975
    171       0.00000          -0.021273           -0.57886
    172       0.00000          -0.019003           -0.51710
    173       0.00000          -0.015868           -0.43179
    174       0.00000          -0.014064           -0.38270
    175       0.00000          -0.010613           -0.28878
    176       0.00000          -0.007661           -0.20846
    177       0.00000          -0.003753           -0.10212
    178       0.00000          -0.002804           -0.07630
    179       0.00000           0.001731            0.04711
    180       0.00000           0.003616            0.09840
    181       0.00000           0.006243            0.16988
    182       0.00000           0.008284            0.22541
    183       0.00000           0.009494            0.25834
    184       0.00000           0.011300            0.30750
    185       0.00000           0.012738            0.34661
    186       0.00000           0.016193            0.44063
    187       0.00000           0.019616            0.53378
    188       0.00000           0.023082            0.62809
    189       0.00000           0.024828            0.67561
    190       0.00000           0.026285            0.71526
    191       0.00000           0.032109            0.87372
    192       0.00000           0.033288            0.90582
    193       0.00000           0.034437            0.93708
    194       0.00000           0.037913            1.03167
    195       0.00000           0.041200            1.12112
    196       0.00000           0.044291            1.20523
    197       0.00000           0.046940            1.27731
    198       0.00000           0.048339            1.31536
    199       0.00000           0.049025            1.33404
    200       0.00000           0.051230            1.39404
    201       0.00000           0.052853            1.43821
    202       0.00000           0.054122            1.47273
    203       0.00000           0.056493            1.53724
    204       0.00000           0.060321            1.64142
    205       0.00000           0.062614            1.70382
    206       0.00000           0.063090            1.71678
    207       0.00000           0.066954            1.82191
    208       0.00000           0.069367            1.88756
    209       0.00000           0.070269            1.91212
    210       0.00000           0.073476            1.99937
    211       0.00000           0.074013            2.01399
    212       0.00000           0.079604            2.16614
    213       0.00000           0.082252            2.23819
    214       0.00000           0.083383            2.26897
    215       0.00000           0.085411            2.32416
    216       0.00000           0.086127            2.34362
    217       0.00000           0.088176            2.39938
    218       0.00000           0.090821            2.47138
    219       0.00000           0.093871            2.55435
    220       0.00000           0.095925            2.61025
    221       0.00000           0.096421            2.62375
    222       0.00000           0.101646            2.76593
    223       0.00000           0.103761            2.82349
    224       0.00000           0.106153            2.88857
    225       0.00000           0.107522            2.92584
    226       0.00000           0.109944            2.99172
    227       0.00000           0.111511            3.03436
    228       0.00000           0.112838            3.07049
    229       0.00000           0.115497            3.14283
    230       0.00000           0.119593            3.25428
    231       0.00000           0.121472            3.30541
    232       0.00000           0.123841            3.36989
    233       0.00000           0.124066            3.37600
    234       0.00000           0.127837            3.47861
    235       0.00000           0.129360            3.52005
    236       0.00000           0.131965            3.59095
    237       0.00000           0.132852            3.61508
    238       0.00000           0.137353            3.73756
    239       0.00000           0.138450            3.76742
    240       0.00000           0.142809            3.88603
    241       0.00000           0.143164            3.89568
    242       0.00000           0.144078            3.92055
    243       0.00000           0.144645            3.93599
    244       0.00000           0.147710            4.01938
    245       0.00000           0.148985            4.05410
    246       0.00000           0.149411            4.06568
    247       0.00000           0.152539            4.15079
    248       0.00000           0.154357            4.20028
    249       0.00000           0.155775            4.23886
    250       0.00000           0.158804            4.32128
    251       0.00000           0.160432            4.36557
    252       0.00000           0.164797            4.48436
    253       0.00000           0.167728            4.56410
    254       0.00000           0.168293            4.57950
    255       0.00000           0.169435            4.61056
    256       0.00000           0.170095            4.62853
    257       0.00000           0.174331            4.74379
    258       0.00000           0.174512            4.74871
    259       0.00000           0.179636            4.88814
    260       0.00000           0.181514            4.93926
    261       0.00000           0.183683            4.99828
    262       0.00000           0.184412            5.01810
    263       0.00000           0.187281            5.09617
    264       0.00000           0.190355            5.17983
    265       0.00000           0.192244            5.23121
    266       0.00000           0.192667            5.24274
    267       0.00000           0.195202            5.31170
    268       0.00000           0.197107            5.36355
    269       0.00000           0.201357            5.47920
    270       0.00000           0.202510            5.51058
    271       0.00000           0.204579            5.56688
    272       0.00000           0.205978            5.60494
    273       0.00000           0.211936            5.76707
    274       0.00000           0.213984            5.82281
    275       0.00000           0.219565            5.97468
    276       0.00000           0.222876            6.06477
    277       0.00000           0.225795            6.14421
    278       0.00000           0.227943            6.20263
    279       0.00000           0.229492            6.24481
    280       0.00000           0.234860            6.39087
    281       0.00000           0.235989            6.42159
    282       0.00000           0.236460            6.43439
    283       0.00000           0.239310            6.51197
    284       0.00000           0.240332            6.53976
    285       0.00000           0.242860            6.60855
    286       0.00000           0.243959            6.63845
    287       0.00000           0.248339            6.75765
    288       0.00000           0.250803            6.82470
    289       0.00000           0.251618            6.84686
    290       0.00000           0.253385            6.89496
    291       0.00000           0.257782            7.01460
    292       0.00000           0.258976            7.04710
    293       0.00000           0.263139            7.16038
    294       0.00000           0.265960            7.23714
    295       0.00000           0.269522            7.33405
    296       0.00000           0.272249            7.40827
    297       0.00000           0.273648            7.44635
    298       0.00000           0.274349            7.46541
    299       0.00000           0.277439            7.54951
    300       0.00000           0.279846            7.61500

  Highest occupied state (VBM) at     -9.63297072 eV
  | Occupation number:      2.00000000

  Lowest unoccupied state (CBM) at    -7.09788291 eV
  | Occupation number:      0.00000000

  Overall HOMO-LUMO gap:      2.53508781 eV.
  Calculating total energy contributions from superposition of free atom densities.

  Total energy components:
  | Sum of eigenvalues            :        -979.32941657 Ha      -26648.90930652 eV
  | XC energy correction          :        -231.38199685 Ha       -6296.22448265 eV
  | XC potential correction       :         297.22554915 Ha        8087.91870115 eV
  | Free-atom electrostatic energy:        -702.80638372 Ha      -19124.33473645 eV
  | Hartree energy correction     :           0.00000000 Ha           0.00000000 eV
  | Entropy correction            :           0.00000000 Ha           0.00000000 eV
  | ---------------------------
  | Total energy                  :       -1616.29224799 Ha      -43981.54982447 eV
  | Total energy, T -> 0          :       -1616.29224799 Ha      -43981.54982447 eV  <-- do not rely on this value for anything but (periodic) metals
  | Electronic free energy        :       -1616.29224799 Ha      -43981.54982447 eV

  Derived energy quantities:
  | Kinetic energy                :        1602.04715822 Ha       43593.92120950 eV
  | Electrostatic energy          :       -2986.95740936 Ha      -81279.24655131 eV
  | Energy correction for multipole
  | error in Hartree potential    :           0.00000000 Ha           0.00000000 eV
  | Sum of eigenvalues per atom                           :        -403.77135313 eV
  | Total energy (T->0) per atom                          :        -666.38711855 eV  <-- do not rely on this value for anything but (periodic) metals
  | Electronic free energy per atom                       :        -666.38711855 eV
  Initialize hartree_potential_storage
  Max. number of atoms included in rho_multipole:           66

  End scf initialization - timings             :  max(cpu_time)    wall_clock(cpu1)
  | Time for scf. initialization               :       17.799 s          17.861 s
  | Boundary condition initialization          :        0.000 s           0.003 s
  | Integration                                :       14.043 s          14.050 s
  | Solution of K.-S. eqns.                    :        0.414 s           0.433 s
  | Grid partitioning                          :        1.324 s           1.328 s
  | Preloading free-atom quantities on grid    :        0.013 s           0.016 s
  | Free-atom superposition energy             :        0.134 s           0.135 s
  | Total energy evaluation                    :        0.001 s           0.005 s

  Partial memory accounting:
  | Current value for overall tracked memory usage on task 0  :           7.674 MB
  | Peak value for overall tracked memory usage on task 0     :          47.026 MB after allocating zora_vector2
  | Largest tracked array allocation on task 0 so far         :          16.451 MB  when allocating hamiltonian_shell
  Note:  These values currently only include a subset of arrays which are explicitly tracked.
  The "true" memory usage will be greater.
------------------------------------------------------------

------------------------------------------------------------
          Begin self-consistency iteration #    1

  Date     :  20210620, Time     :  163114.313
------------------------------------------------------------
  Evaluating new KS density.
  Integration grid: deviation in total charge (<rho> - N_e) =   2.273737E-13
  Pulay mixing of updated and previous charge densities.

  Evaluating partitioned Hartree potential by multipole expansion.
  | Analytical far-field extrapolation by fixed multipoles:
  | Hartree multipole sum: apparent total charge =  -0.445822E-04
  Summing up the Hartree potential with load balancing.
  Time summed over all CPUs for potential: real work       44.573 s, elapsed       87.827 s
  | RMS charge density error from multipole expansion :   0.162969E-01

  Start compute_balanced_batch_distribution
  Done load balancing, time needed:      0.009 s
  Integrating Hamiltonian matrix: batch-based integration with load balancing
  Time summed over all CPUs for integration: real work      343.501 s, elapsed      381.613 s
  Time get_set_full_local_matrix_scalapack:     0.036694 s
  Start compute_balanced_batch_distribution
  Done load balancing, time needed:      0.010 s

  Updating Kohn-Sham eigenvalues and eigenvectors using ELSI and the ELPA eigensolver.
  Finished transformation to standard eigenproblem
  | Time :     0.034 s
  Starting ELPA eigensolver
  Finished solving standard eigenproblem
  | Time :     0.163 s
  Finished back-transformation of eigenvectors
  | Time :     0.008 s

  Obtaining occupation numbers and chemical potential using ELSI.
  | Chemical potential (Fermi level):    -5.00494818 eV
  Writing Kohn-Sham eigenvalues.

  State    Occupation    Eigenvalue [Ha]    Eigenvalue [eV]
      1       2.00000          -9.987795         -271.78173
      2       2.00000          -9.984414         -271.68974
      3       2.00000          -9.980616         -271.58639
      4       2.00000          -9.971966         -271.35099
      5       2.00000          -9.971360         -271.33451
      6       2.00000          -9.969372         -271.28041
      7       2.00000          -9.965609         -271.17801
      8       2.00000          -9.963171         -271.11166
      9       2.00000          -9.962945         -271.10552
     10       2.00000          -9.962088         -271.08220
     11       2.00000          -9.961896         -271.07698
     12       2.00000          -9.961589         -271.06862
     13       2.00000          -9.961546         -271.06747
     14       2.00000          -9.960598         -271.04167
     15       2.00000          -9.959238         -271.00465
     16       2.00000          -9.958894         -270.99530
     17       2.00000          -9.957205         -270.94933
     18       2.00000          -9.956355         -270.92620
     19       2.00000          -9.953849         -270.85802
     20       2.00000          -9.947858         -270.69498
     21       2.00000          -9.947488         -270.68492
     22       2.00000          -9.946582         -270.66027
     23       2.00000          -9.945882         -270.64121
     24       2.00000          -9.945585         -270.63315
     25       2.00000          -9.945271         -270.62460
     26       2.00000          -9.944490         -270.60335
     27       2.00000          -9.944482         -270.60312
     28       2.00000          -9.944238         -270.59649
     29       2.00000          -9.943573         -270.57840
     30       2.00000          -9.943237         -270.56924
     31       2.00000          -9.942862         -270.55903
     32       2.00000          -9.941619         -270.52523
     33       2.00000          -9.941587         -270.52435
     34       2.00000          -9.941534         -270.52291
     35       2.00000          -9.941000         -270.50837
     36       2.00000          -9.939875         -270.47776
     37       2.00000          -9.939465         -270.46660
     38       2.00000          -9.938104         -270.42956
     39       2.00000          -9.936127         -270.37576
     40       2.00000          -9.935649         -270.36278
     41       2.00000          -9.935311         -270.35356
     42       2.00000          -9.933123         -270.29404
     43       2.00000          -0.871962          -23.72730
     44       2.00000          -0.864662          -23.52865
     45       2.00000          -0.861609          -23.44558
     46       2.00000          -0.833215          -22.67293
     47       2.00000          -0.831415          -22.62396
     48       2.00000          -0.814653          -22.16783
     49       2.00000          -0.810195          -22.04653
     50       2.00000          -0.807075          -21.96162
     51       2.00000          -0.789110          -21.47277
     52       2.00000          -0.781949          -21.27793
     53       2.00000          -0.768420          -20.90976
     54       2.00000          -0.753059          -20.49179
     55       2.00000          -0.742506          -20.20462
     56       2.00000          -0.734379          -19.98348
     57       2.00000          -0.733041          -19.94707
     58       2.00000          -0.729965          -19.86335
     59       2.00000          -0.725442          -19.74027
     60       2.00000          -0.713300          -19.40988
     61       2.00000          -0.710878          -19.34397
     62       2.00000          -0.698518          -19.00765
     63       2.00000          -0.689204          -18.75420
     64       2.00000          -0.633872          -17.24854
     65       2.00000          -0.632491          -17.21096
     66       2.00000          -0.625520          -17.02126
     67       2.00000          -0.624385          -16.99037
     68       2.00000          -0.619539          -16.85853
     69       2.00000          -0.618719          -16.83620
     70       2.00000          -0.616921          -16.78729
     71       2.00000          -0.612716          -16.67286
     72       2.00000          -0.609242          -16.57833
     73       2.00000          -0.600194          -16.33210
     74       2.00000          -0.578193          -15.73343
     75       2.00000          -0.545427          -14.84183
     76       2.00000          -0.543455          -14.78817
     77       2.00000          -0.537084          -14.61480
     78       2.00000          -0.525813          -14.30810
     79       2.00000          -0.523961          -14.25770
     80       2.00000          -0.518313          -14.10401
     81       2.00000          -0.515076          -14.01593
     82       2.00000          -0.514312          -13.99514
     83       2.00000          -0.512317          -13.94087
     84       2.00000          -0.510347          -13.88724
     85       2.00000          -0.504923          -13.73964
     86       2.00000          -0.492667          -13.40615
     87       2.00000          -0.490801          -13.35538
     88       2.00000          -0.476291          -12.96054
     89       2.00000          -0.467364          -12.71762
     90       2.00000          -0.464721          -12.64570
     91       2.00000          -0.451362          -12.28218
     92       2.00000          -0.449990          -12.24484
     93       2.00000          -0.447548          -12.17841
     94       2.00000          -0.446256          -12.14326
     95       2.00000          -0.443496          -12.06814
     96       2.00000          -0.442034          -12.02837
     97       2.00000          -0.439391          -11.95645
     98       2.00000          -0.428828          -11.66900
     99       2.00000          -0.425783          -11.58614
    100       2.00000          -0.420836          -11.45152
    101       2.00000          -0.416761          -11.34063
    102       2.00000          -0.413047          -11.23958
    103       2.00000          -0.410519          -11.17080
    104       2.00000          -0.408611          -11.11887
[...]
    130       2.00000          -0.243153           -6.61654
    131       2.00000          -0.235783           -6.41598
    132       2.00000          -0.234011           -6.36777
    133       2.00000          -0.229009           -6.23164
    134       2.00000          -0.214794           -5.84484
    135       2.00000          -0.209575           -5.70282
    136       2.00000          -0.204585           -5.56704
    137       2.00000          -0.187181           -5.09346
    138       2.00000          -0.176965           -4.81547
    139       0.00000          -0.087778           -2.38856
    140       0.00000          -0.086603           -2.35659
    141       0.00000          -0.073472           -1.99928
    142       0.00000          -0.057002           -1.55111
    143       0.00000          -0.054333           -1.47848
    144       0.00000          -0.048350           -1.31566
    145       0.00000          -0.041854           -1.13890
    146       0.00000          -0.037527           -1.02117
    147       0.00000          -0.025081           -0.68250
    148       0.00000          -0.022025           -0.59934
    149       0.00000          -0.011953           -0.32526
    150       0.00000          -0.010237           -0.27857
    151       0.00000          -0.004879           -0.13275
    152       0.00000          -0.001967           -0.05352
    153       0.00000           0.007108            0.19342
    154       0.00000           0.007540            0.20518
    155       0.00000           0.011791            0.32084
    156       0.00000           0.013213            0.35956
    157       0.00000           0.016387            0.44591
    158       0.00000           0.017149            0.46665
    159       0.00000           0.024375            0.66328
    160       0.00000           0.024790            0.67457
    161       0.00000           0.027826            0.75720
    162       0.00000           0.031567            0.85899
    163       0.00000           0.036672            0.99789
    164       0.00000           0.038594            1.05020
    165       0.00000           0.045010            1.22478
    166       0.00000           0.045303            1.23275
    167       0.00000           0.049609            1.34992
    168       0.00000           0.050044            1.36176
    169       0.00000           0.056419            1.53524
    170       0.00000           0.057721            1.57066
    171       0.00000           0.060794            1.65430
    172       0.00000           0.063263            1.72147
    173       0.00000           0.066467            1.80865
    174       0.00000           0.077257            2.10227
    175       0.00000           0.078364            2.13240
    176       0.00000           0.083224            2.26464
    177       0.00000           0.088178            2.39943
    178       0.00000           0.090750            2.46942
    179       0.00000           0.091899            2.50071
    180       0.00000           0.095536            2.59967
    181       0.00000           0.098012            2.66704
    182       0.00000           0.104662            2.84799
    183       0.00000           0.110711            3.01259
    184       0.00000           0.117947            3.20951
    185       0.00000           0.122594            3.33595
    186       0.00000           0.125113            3.40450
    187       0.00000           0.127655            3.47368
    188       0.00000           0.128613            3.49975
    189       0.00000           0.134427            3.65796
    190       0.00000           0.136281            3.70841
    191       0.00000           0.137755            3.74852
    192       0.00000           0.139987            3.80923
    193       0.00000           0.144976            3.94500
    194       0.00000           0.145964            3.97188
    195       0.00000           0.150821            4.10405
    196       0.00000           0.154270            4.19791
    197       0.00000           0.158789            4.32088
    198       0.00000           0.161050            4.38240
    199       0.00000           0.161909            4.40576
    200       0.00000           0.163351            4.44501
    201       0.00000           0.164095            4.46525
    202       0.00000           0.167487            4.55757
    203       0.00000           0.174179            4.73965
    204       0.00000           0.175637            4.77933
    205       0.00000           0.180693            4.91692
    206       0.00000           0.182762            4.97322
    207       0.00000           0.183121            4.98298
    208       0.00000           0.184986            5.03371
    209       0.00000           0.185970            5.06050
    210       0.00000           0.188023            5.11635
    211       0.00000           0.189532            5.15742
    212       0.00000           0.191724            5.21708
    213       0.00000           0.193059            5.25340
    214       0.00000           0.196975            5.35995
    215       0.00000           0.197611            5.37727
    216       0.00000           0.198805            5.40977
    217       0.00000           0.202532            5.51118
    218       0.00000           0.204437            5.56302
    219       0.00000           0.207199            5.63818
    220       0.00000           0.209519            5.70129
    221       0.00000           0.211831            5.76422
    222       0.00000           0.215183            5.85543
    223       0.00000           0.217129            5.90839
    224       0.00000           0.218159            5.93641
    225       0.00000           0.219860            5.98269
    226       0.00000           0.222857            6.06425
    227       0.00000           0.224772            6.11635
    228       0.00000           0.225780            6.14379
    229       0.00000           0.229631            6.24856
    230       0.00000           0.230943            6.28427
    231       0.00000           0.231802            6.30765
    232       0.00000           0.232513            6.32700
    233       0.00000           0.233323            6.34905
    234       0.00000           0.234299            6.37560
    235       0.00000           0.236827            6.44439
    236       0.00000           0.240241            6.53730
    237       0.00000           0.242485            6.59835
    238       0.00000           0.243013            6.61271
    239       0.00000           0.245392            6.67746
    240       0.00000           0.248027            6.74917
    241       0.00000           0.249591            6.79172
    242       0.00000           0.252963            6.88347
    243       0.00000           0.256319            6.97480
    244       0.00000           0.257462            7.00590
    245       0.00000           0.257712            7.01271
    246       0.00000           0.259366            7.05771
    247       0.00000           0.260041            7.07606
    248       0.00000           0.263647            7.17421
    249       0.00000           0.264168            7.18839
    250       0.00000           0.269607            7.33638
    251       0.00000           0.272044            7.40269
    252       0.00000           0.273482            7.44182
    253       0.00000           0.275008            7.48335
    254       0.00000           0.277512            7.55149
    255       0.00000           0.280003            7.61926
    256       0.00000           0.281785            7.66776
    257       0.00000           0.284754            7.74856
    258       0.00000           0.287622            7.82659
    259       0.00000           0.290879            7.91521
    260       0.00000           0.291368            7.92852
    261       0.00000           0.293551            7.98792
    262       0.00000           0.297006            8.08194
    263       0.00000           0.297563            8.09710
    264       0.00000           0.301898            8.21505
    265       0.00000           0.305771            8.32045
    266       0.00000           0.309643            8.42583
    267       0.00000           0.311923            8.48786
    268       0.00000           0.313842            8.54008
    269       0.00000           0.315556            8.58670
    270       0.00000           0.320092            8.71014
    271       0.00000           0.322686            8.78074
    272       0.00000           0.323267            8.79653
    273       0.00000           0.323689            8.80803
    274       0.00000           0.327383            8.90855
    275       0.00000           0.328502            8.93898
    276       0.00000           0.329751            8.97299
    277       0.00000           0.330855            9.00302
    278       0.00000           0.335147            9.11983
    279       0.00000           0.337257            9.17723
    280       0.00000           0.338529            9.21184
    281       0.00000           0.340729            9.27170
    282       0.00000           0.345585            9.40384
    283       0.00000           0.348882            9.49355
    284       0.00000           0.351132            9.55478
    285       0.00000           0.352281            9.58607
    286       0.00000           0.359265            9.77611
    287       0.00000           0.364836            9.92769
    288       0.00000           0.365920            9.95719
    289       0.00000           0.370219           10.07418
    290       0.00000           0.370762           10.08895
    291       0.00000           0.378154           10.29010
    292       0.00000           0.380259           10.34737
    293       0.00000           0.381053           10.36898
    294       0.00000           0.387614           10.54751
    295       0.00000           0.389113           10.58831
    296       0.00000           0.392258           10.67387
    297       0.00000           0.408097           11.10488
    298       0.00000           0.408646           11.11982
    299       0.00000           0.412318           11.21975
    300       0.00000           0.419512           11.41549

  Highest occupied state (VBM) at     -4.81547227 eV
  | Occupation number:      2.00000000

  Lowest unoccupied state (CBM) at    -2.38856011 eV
  | Occupation number:      0.00000000

  Overall HOMO-LUMO gap:      2.42691215 eV.

  Total energy components:
  | Sum of eigenvalues            :        -918.27562405 Ha      -24987.55108310 eV
  | XC energy correction          :        -235.62448378 Ha       -6411.66842563 eV
  | XC potential correction       :         302.70365245 Ha        8236.98547632 eV
  | Free-atom electrostatic energy:        -702.80638372 Ha      -19124.33473645 eV
  | Hartree energy correction     :         -60.30897003 Ha       -1641.09057227 eV
  | Entropy correction            :           0.00000000 Ha           0.00000000 eV
  | ---------------------------
  | Total energy                  :       -1614.31180913 Ha      -43927.65934113 eV
  | Total energy, T -> 0          :       -1614.31180913 Ha      -43927.65934113 eV  <-- do not rely on this value for anything but (periodic) metals
  | Electronic free energy        :       -1614.31180913 Ha      -43927.65934113 eV

  Derived energy quantities:
  | Kinetic energy                :        1610.92512733 Ha       43835.50304047 eV
  | Electrostatic energy          :       -2989.61245268 Ha      -81351.49395597 eV
  | Energy correction for multipole
  | error in Hartree potential    :          -0.20898339 Ha          -5.68672742 eV
  | Sum of eigenvalues per atom                           :        -378.59925883 eV
  | Total energy (T->0) per atom                          :        -665.57059608 eV  <-- do not rely on this value for anything but (periodic) metals
  | Electronic free energy per atom                       :        -665.57059608 eV
  End evaluation of scaled ZORA corrections.
  | Time for scaled ZORA corrections           :       13.640 s          13.642 s
------------------------------------------------------------

  Energy and forces in a compact form:
  | Total energy uncorrected      :         -0.439276593411270E+05 eV
  | Total energy corrected        :         -0.439276593411270E+05 eV  <-- do not rely on this value for anything but (periodic) metals
  | Electronic free energy        :         -0.439276593411270E+05 eV

  ------------------------------------ 
  Start decomposition of the XC Energy 
  ------------------------------------ 
  X and C from original XC functional choice 
  Hartree-Fock Energy :          0.000000000 Ha              0.000000000 eV
  X Energy            :       -226.325973171 Ha          -6158.643078299 eV
  C Energy            :         -9.298510604 Ha           -253.025347334 eV
  Total XC Energy     :       -235.624483776 Ha          -6411.668425633 eV
  ------------------------------------ 
  LDA X and C from self-consistent density 
  X Energy LDA        :       -205.051232829 Ha          -5579.727938718 eV
  C Energy LDA        :        -17.861604674 Ha           -486.038992564 eV
  ------------------------------------ 
  End decomposition of the XC Energy 
  ------------------------------------ 

------------------------------------------------------------

------------------------------------------------------------------------------
  Final output of selected total energy values:

  The following output summarizes some interesting total energy values
  at the end of a run (AFTER all relaxation, molecular dynamics, etc.).

  | Total energy of the DFT / Hartree-Fock s.c.f. calculation      :         -43927.659341127 eV
  | Final zero-broadening corrected energy (caution - metals only) :         -43927.659341127 eV
  | For reference only, the value of 1 Hartree used in FHI-aims is :             27.211384500 eV

  Before relying on these values, please be sure to understand exactly which
  total energy value is referred to by a given number. Different objects may
  all carry the same name 'total energy'. Definitions:

  Total energy of the DFT / Hartree-Fock s.c.f. calculation:
  | Note that this energy does not include ANY quantities calculated after the
  | s.c.f. cycle, in particular not ANY RPA, MP2, etc. many-body perturbation terms.
  | Scalar relativistic effects have been included in the 'scaled ZORA' approximation.

  Final zero-broadening corrected energy:
  | For metallic systems only, a broadening of the occupation numbers at the Fermi
  | level can be extrapolated back to zero broadening by an electron-gas inspired
  | formula. For all systems that are not real metals, this value can be
  | meaningless and should be avoided.

------------------------------------------------------------------------------
  Methods described in the following list of references were used in this FHI-aims run.
  If you publish the results, please make sure to cite these reference if they apply.
  FHI-aims is an academic code, and for our developers (often, Ph.D. students
  and postdocs), scientific credit in the community is essential.
  Thank you for helping us!

  For any use of FHI-aims, please cite:

    Volker Blum, Ralf Gehrke, Felix Hanke, Paula Havu, Ville Havu,
    Xinguo Ren, Karsten Reuter, and Matthias Scheffler
    'Ab initio molecular simulations with numeric atom-centered orbitals'
    Computer Physics Communications 180, 2175-2196 (2009)
    http://dx.doi.org/10.1016/j.cpc.2009.06.022


  The scalable eigensolver library ELPA was used in your run.
  ELPA is essential especially for large systems on hundreds or thousands of CPUs.
  For ELPA, please cite:

    Andreas Marek, Volker Blum, Rainer Johanni, Ville Havu, Bruno Lang,
    Thomas Auckenthaler, Alexander Heinecke, Hans-Joachim Bungartz, and Hermann Lederer,
    'The ELPA Library - Scalable Parallel Eigenvalue Solutions
    for Electronic Structure Theory and Computational Science'
    The Journal of Physics: Condensed Matter 26, 213201 (2014).
    http://dx.doi.org/10.1088/0953-8984/26/21/213201


  The ELSI infrastructure was used in your run to solve the Kohn-Sham electronic structure.
  Please check out http://elsi-interchange.org to learn more.
  If scalability is important for your project, please acknowledge ELSI by citing:

    V. W-z. Yu, F. Corsetti, A. Garcia, W. P. Huhn, M. Jacquelin, W. Jia,
    B. Lange, L. Lin, J. Lu, W. Mi, A. Seifitokaldani, A. Vazquez-Mayagoitia,
    C. Yang, H. Yang, and V. Blum
    'ELSI: A unified software interface for Kohn-Sham electronic structure solvers'
    Computer Physics Communications 222, 267-285 (2018).
    http://dx.doi.org/10.1016/j.cpc.2017.09.007


  For the real-space grid partitioning and parallelization used in this calculation, please cite:

    Ville Havu, Volker Blum, Paula Havu, and Matthias Scheffler,
    'Efficient O(N) integration for all-electron electronic structure calculation'
    'using numerically tabulated basis functions'
    Journal of Computational Physics 228, 8367-8379 (2009).
    http://dx.doi.org/10.1016/j.jcp.2009.08.008

  Of course, there are many other important community references, e.g., those cited in the
  above references. Our list is limited to references that describe implementations in the
  FHI-aims code. The reason is purely practical (length of this list) - please credit others as well.

------------------------------------------------------------
          Leaving FHI-aims.
          Date     :  20210620, Time     :  163451.422

          Computational steps:
          | Number of self-consistency cycles          :           19
          | Number of SCF (re)initializations          :            1

          Detailed time accounting                     :  max(cpu_time)    wall_clock(cpu1)
          | Total time                                 :      235.130 s         235.351 s
          | Preparation time                           :        0.195 s           0.208 s
          | Boundary condition initalization           :        0.000 s           0.003 s
          | Grid partitioning                          :        1.324 s           1.328 s
          | Preloading free-atom quantities on grid    :        0.013 s           0.016 s
          | Free-atom superposition energy             :        0.134 s           0.135 s
          | Total time for integrations                :      137.190 s         137.200 s
          | Total time for solution of K.-S. equations :        5.872 s           5.898 s
          | Total time for density update              :       55.890 s          55.830 s
          | Total time for mixing                      :        0.212 s           0.218 s
          | Total time for Hartree multipole update    :        0.254 s           0.257 s
          | Total time for Hartree multipole sum       :       18.263 s          18.270 s
          | Total time for total energy evaluation     :        0.007 s           0.038 s
          | Total time for scaled ZORA corrections     :       13.640 s          13.642 s

          Partial memory accounting:
          | Residual value for overall tracked memory usage across tasks :     0.000000 MB (should be 0.000000 MB)
          | Peak values for overall tracked memory usage (after allocating zora_vector2):
          |   Minimum:       47.016 MB (on task 16)
          |   Maximum:       62.624 MB (on task 13)
          |   Average:       54.584 MB
          | Largest tracked array allocation (hamiltonian_shell):
          |   Minimum:       16.451 MB (on task  1)
          |   Maximum:       16.451 MB (on task  1)
          |   Average:       16.451 MB
          Note:  These values currently only include a subset of arrays which are explicitly tracked.
          The "true" memory usage will be greater.

          Have a nice day.
------------------------------------------------------------
