  MPI-parallelism will be employed.
------------------------------------------------------------
          Invoking FHI-aims ...
          Version 180607
          Git rev. (modified): 6724847 Fix JSON memory corruption in scf_solver
          Compiled on 2018/06/27 at 16:00:31 on host coe.psc.edu.

          When using FHI-aims, please cite the following reference:

          Volker Blum, Ralf Gehrke, Felix Hanke, Paula Havu,
          Ville Havu, Xinguo Ren, Karsten Reuter, and Matthias Scheffler,
          'Ab Initio Molecular Simulations with Numeric Atom-Centered Orbitals',
          Computer Physics Communications 180, 2175-2196 (2009)

          For any questions about FHI-aims, please visit the aimsclub website
          with its forums and wiki. Contributions to both the forums and the
          wiki are warmly encouraged - they are for you, and everyone is welcome there.

------------------------------------------------------------



  Date     :  20210620, Time     :  175106.666
  Time zero on CPU 1             :   0.235870000000000E+00  s.
  Internal wall clock time zero  :           393443466.666  s.

  FHI-aims created a unique identifier for this run for later identification
  aims_uuid : 566E769C-80D2-4D04-A7A2-CC1606EA4B1B

  Using       56 parallel tasks.
  Task        0 on host f001 reporting.
  Task        1 on host f001 reporting.
  Task        2 on host f001 reporting.
  Task        3 on host f001 reporting.
  Task        4 on host f001 reporting.
  Task        5 on host f001 reporting.
  Task        6 on host f001 reporting.
  Task        7 on host f001 reporting.
  Task        8 on host f001 reporting.
  Task        9 on host f001 reporting.
  Task       10 on host f001 reporting.
  Task       11 on host f001 reporting.
  Task       12 on host f001 reporting.
  Task       13 on host f001 reporting.
  Task       14 on host f001 reporting.
  Task       15 on host f001 reporting.
  Task       16 on host f001 reporting.
  Task       17 on host f001 reporting.
  Task       18 on host f001 reporting.
  Task       19 on host f001 reporting.
  Task       20 on host f001 reporting.
  Task       21 on host f001 reporting.
  Task       22 on host f001 reporting.
  Task       23 on host f001 reporting.
  Task       24 on host f001 reporting.
  Task       25 on host f001 reporting.
  Task       26 on host f001 reporting.
  Task       27 on host f001 reporting.
  Task       28 on host f001 reporting.
  Task       29 on host f001 reporting.
  Task       30 on host f001 reporting.
  Task       31 on host f001 reporting.
  Task       32 on host f001 reporting.
  Task       33 on host f001 reporting.
  Task       34 on host f001 reporting.
  Task       35 on host f001 reporting.
  Task       36 on host f001 reporting.
  Task       37 on host f001 reporting.
  Task       38 on host f001 reporting.
  Task       39 on host f001 reporting.
  Task       40 on host f001 reporting.
  Task       41 on host f001 reporting.
  Task       42 on host f001 reporting.
  Task       43 on host f001 reporting.
  Task       44 on host f001 reporting.
  Task       45 on host f001 reporting.
  Task       46 on host f001 reporting.
  Task       47 on host f001 reporting.
  Task       48 on host f001 reporting.
  Task       49 on host f001 reporting.
  Task       50 on host f001 reporting.
  Task       51 on host f001 reporting.
  Task       52 on host f001 reporting.
  Task       53 on host f001 reporting.
  Task       54 on host f001 reporting.
  Task       55 on host f001 reporting.

  Performing system and environment tests:
  *** Environment variable OMP_NUM_THREADS is not set
  *** For performance reasons you might want to set it to 1
  | Stacksize not measured: no C compiler
  | Checking for scalapack...
  | Testing pdtran()...
  | All pdtran() tests passed.

  Obtaining array dimensions for all initial allocations:
  
  -----------------------------------------------------------------------
  Parsing control.in (first pass over file, find array dimensions only).
  The contents of control.in will be repeated verbatim below
  unless switched off by setting 'verbatim_writeout .false.' .
  in the first line of control.in .
  -----------------------------------------------------------------------
  
  #===============================================================================
  # FHI-aims file: ./Runs/es/control.in
  # Created using the Atomic Simulation Environment (ASE)
  # Mon Jan 13 16:04:38 2020
  #===============================================================================
  xc                                 pbe
  relativistic                       zora scalar 1e-12
  occupation_type                    gaussian 0.0001
  load_balancing                     .true.
  KS_method                          scalapack_fast
  mixer                              pulay
  n_max_pulay                        5
  charge_mix_param                   0.4
  sc_accuracy_etot                   1e-6
  sc_accuracy_eev                    1e-4
  sc_accuracy_rho                    1e-6
  sc_iter_limit                      100
  prodbas_threshold                  1e-4
  basis_threshold                    1e-5
  override_illconditioning           .true.
  use_logsbt                         .true.
  spin                               none
  charge                             0
  #===============================================================================
  
  ################################################################################
  #
  #  FHI-aims code project
  # Volker Blum, Fritz Haber Institute Berlin, 2009
  #
  #  Suggested "tight" defaults for H atom (to be pasted into control.in file)
  #
  ################################################################################
    species        H
  #     global species definitions
      nucleus             1
      mass                1.00794
  #
      l_hartree           6
  #
      cut_pot             4.0  2.0  1.0
      basis_dep_cutoff    1e-4
  #
      radial_base         24 7.0
      radial_multiplier   2
      angular_grids       specified
        division   0.1930   50
        division   0.3175  110
        division   0.4293  194
        division   0.5066  302
        division   0.5626  434
  #      division   0.5922  590
  #      division   0.6227  974
  #      division   0.6868 1202
  #      outer_grid  770
        outer_grid  434
  ################################################################################
  #
  #  Definition of "minimal" basis
  #
  ################################################################################
  #     valence basis states
      valence      1  s   1.
  #     ion occupancy
      ion_occ      1  s   0.5
  ################################################################################
  #
  #  Suggested additional basis functions. For production calculations,
  #  uncomment them one after another (the most important basis functions are
  #  listed first).
  #
  #  Basis constructed for dimers: 0.5 A, 0.7 A, 1.0 A, 1.5 A, 2.5 A
  #
  ################################################################################
  #  "First tier" - improvements: -1014.90 meV to -62.69 meV
       hydro 2 s 2.1
       hydro 2 p 3.5
  #  "Second tier" - improvements: -12.89 meV to -1.83 meV
       hydro 1 s 0.85
       hydro 2 p 3.7
       hydro 2 s 1.2
       hydro 3 d 7
  #  "Third tier" - improvements: -0.25 meV to -0.12 meV
  #     hydro 4 f 11.2
  #     hydro 3 p 4.8
  #     hydro 4 d 9
  #     hydro 3 s 3.2
  ################################################################################
  #
  # For methods that use the localized form of the "resolution of identity" for
  # the two-electron Coulomb operator (RI_method LVL), particularly Hartree-Fock and
  # hybrid density functional calculations, the highest accuracy can be obtained by
  # uncommenting the line beginning with "for_aux"  below, thus adding an extra g radial
  # function to the construction of the product basis set for the expansion.
  # See Ref. New J. Phys. 17, 093020 (2015) for more information, particularly Figs. 1 and 6.
  #
  ################################################################################
  #
  # for_aux hydro 5 g 6.0
  ################################################################################
  #
  #  FHI-aims code project
  # Volker Blum, Fritz Haber Institute Berlin, 2009
  #
  #  Suggested "tight" defaults for C atom (to be pasted into control.in file)
  #
  ################################################################################
    species        C
  #     global species definitions
      nucleus             6
      mass                12.0107
  #
      l_hartree           6
  #
      cut_pot             4.0  2.0  1.0
      basis_dep_cutoff    1e-4
  #
      radial_base         34 7.0
      radial_multiplier   2
      angular_grids specified
        division   0.2187   50
        division   0.4416  110
        division   0.6335  194
        division   0.7727  302
        division   0.8772  434
  #      division   0.9334  590
  #      division   0.9924  770
  #      division   1.0230  974
  #      division   1.5020 1202
  #     outer_grid  974
        outer_grid  434
  ################################################################################
  #
  #  Definition of "minimal" basis
  #
  ################################################################################
  #     valence basis states
      valence      2  s   2.
      valence      2  p   2.
  #     ion occupancy
      ion_occ      2  s   1.
      ion_occ      2  p   1.
  ################################################################################
  #
  #  Suggested additional basis functions. For production calculations,
  #  uncomment them one after another (the most important basis functions are
  #  listed first).
  #
  #  Constructed for dimers: 1.0 A, 1.25 A, 1.5 A, 2.0 A, 3.0 A
  #
  ################################################################################
  #  "First tier" - improvements: -1214.57 meV to -155.61 meV
       hydro 2 p 1.7
       hydro 3 d 6
       hydro 2 s 4.9
  #  "Second tier" - improvements: -67.75 meV to -5.23 meV
       hydro 4 f 9.8
       hydro 3 p 5.2
       hydro 3 s 4.3
       hydro 5 g 14.4
       hydro 3 d 6.2
  #  "Third tier" - improvements: -2.43 meV to -0.60 meV
  #     hydro 2 p 5.6
  #     hydro 2 s 1.4
  #     hydro 3 d 4.9
  #     hydro 4 f 11.2
  #  "Fourth tier" - improvements: -0.39 meV to -0.18 meV
  #     hydro 2 p 2.1
  #     hydro 5 g 16.4
  #     hydro 4 d 13.2
  #     hydro 3 s 13.6
  #     hydro 4 f 17.6
  #  Further basis functions - improvements: -0.08 meV and below
  #     hydro 3 s 2
  #     hydro 3 p 6
  #     hydro 4 d 20
  ################################################################################
  #
  # For methods that use the localized form of the "resolution of identity" for
  # the two-electron Coulomb operator (RI_method LVL), particularly Hartree-Fock and
  # hybrid density functional calculations, the highest accuracy can be obtained by
  # uncommenting the line beginning with "for_aux"  below, thus adding an extra g radial
  # function to the construction of the product basis set for the expansion.
  # See Ref. New J. Phys. 17, 093020 (2015) for more information, particularly Figs. 1 and 6.
  #
  ################################################################################
  #
  # for_aux hydro 5 g 6.0
  
  -----------------------------------------------------------------------
  Completed first pass over input file control.in .
  -----------------------------------------------------------------------
  
  
  -----------------------------------------------------------------------
  Parsing geometry.in (first pass over file, find array dimensions only).
  The contents of geometry.in will be repeated verbatim below
  unless switched off by setting 'verbatim_writeout .false.' .
  in the first line of geometry.in .
  -----------------------------------------------------------------------
  
  #=======================================================
  # FHI-aims file: geometry.in
  # Created using the Atomic Simulation Environment (ASE)
  # Sun Jun 20 15:47:02 2021
  #=======================================================
  atom 10.0976269999999992 15.6128330000000002 35.8492900000000034 H
  atom 9.9054760000000002 14.9496839999999995 36.6929790000000011 C
  atom 9.0144140000000004 15.3083109999999998 37.6561730000000026 C
  atom 10.5671020000000002 13.7329600000000003 36.7559520000000006 C
  atom 8.7914410000000007 14.4489000000000001 38.6937899999999999 C
  atom 8.2550360000000005 16.5945970000000003 37.5585659999999990 C
  atom 10.3441299999999998 12.8810649999999995 37.7620819999999995 C
  atom 11.2764380000000006 13.4962339999999994 35.9640720000000016 H
  atom 8.0950319999999998 14.7179490000000008 39.4895339999999990 H
  atom 9.4651859999999992 13.2237250000000000 38.7381570000000011 C
  atom 7.1611909999999996 16.6834020000000010 36.6811000000000007 C
  atom 8.6210109999999993 17.6906560000000006 38.3467249999999993 C
  atom 10.8663220000000003 11.9245249999999992 37.8118869999999987 H
  atom 9.2761840000000007 12.5506849999999996 39.5738320000000030 H
  atom 6.7435140000000002 15.5855859999999993 35.9058220000000006 C
  atom 6.4333200000000001 17.9274950000000004 36.5505750000000020 C
  atom 7.8600170000000000 18.9212349999999994 38.2601379999999978 C
  atom 9.7092019999999994 17.6264320000000012 39.2605429999999984 C
  atom 5.6852140000000002 15.6509029999999996 35.0091779999999986 C
  atom 7.2770159999999997 14.6453659999999992 36.0183139999999966 H
  atom 5.3750200000000001 17.9928120000000007 35.6539319999999975 C
  atom 6.8057569999999998 19.0415869999999998 37.3670720000000003 C
  atom 8.2122580000000003 19.9743139999999997 39.1761029999999977 C
  atom 10.2912160000000004 16.7089779999999983 39.3137839999999983 H
  atom 10.0081229999999994 18.6670639999999999 40.0834800000000016 C
  atom 5.3127760000000004 14.5368110000000001 34.1926810000000003 C
  atom 4.9573419999999997 16.8949959999999990 34.8786529999999999 C
  atom 4.8415169999999996 18.9330320000000007 35.5414400000000015 H
  atom 6.0294150000000002 20.3133690000000016 37.2783379999999980 C
  atom 7.6053610000000003 20.8770810000000004 39.1740989999999982 H
  atom 9.2317800000000005 19.8471529999999987 40.0362510000000000 C
  atom 10.8306480000000001 18.5764670000000010 40.7923509999999965 H
  atom 4.2585160000000002 14.6571630000000006 33.2996160000000003 C
  atom 6.0891190000000002 13.2650290000000002 34.2814150000000026 C
  atom 3.8634970000000002 16.9838009999999997 34.0011870000000016 C
  atom 4.7166449999999998 20.3546970000000016 37.7119900000000001 C
  atom 6.5981560000000004 21.4624750000000013 36.7874380000000016 C
  atom 9.4511649999999996 20.6598879999999987 40.7306669999999968 H
  atom 3.9062749999999999 13.6040849999999995 32.3836510000000004 C
  atom 3.4975230000000002 15.8877419999999994 33.2130280000000013 C
  atom 5.5203769999999999 12.1159230000000004 34.7723149999999990 C
  atom 7.4018889999999997 13.2237010000000001 33.8477630000000005 C
  atom 3.1041200000000000 18.2700870000000002 33.9035799999999981 C
  atom 4.2465440000000001 19.4559689999999996 38.1130110000000002 H
  atom 3.9936199999999999 21.5320849999999986 37.6518799999999985 C
  atom 5.8549360000000004 22.6558080000000004 36.7316209999999970 C
  atom 7.6289840000000000 21.4598590000000016 36.4345050000000015 H
  atom 2.8867530000000001 13.7312449999999995 31.5235030000000016 C
  atom 4.5131720000000000 12.7013169999999995 32.3856540000000024 H
  atom 2.4093320000000000 15.9519660000000005 32.2992100000000022 C
  atom 4.4895490000000002 12.1185390000000002 35.1252479999999991 H
  atom 6.2635969999999999 10.9225899999999996 34.8281319999999965 C
  atom 8.1249129999999994 12.0463129999999996 33.9078739999999996 C
  atom 7.8719890000000001 14.1224290000000003 33.4467420000000004 H
  atom 2.2130580000000002 18.6287139999999987 34.8667739999999995 C
  atom 3.3270919999999999 19.1294980000000017 32.8659639999999982 C
  atom 2.9645299999999999 21.5403120000000001 38.0105369999999994 H
  atom 4.5817500000000004 22.6666659999999993 37.1709979999999973 C
  atom 6.3233389999999998 23.5616640000000004 36.3451990000000009 H
  atom 2.6673680000000002 12.9185099999999995 30.8290870000000012 H
  atom 2.1104099999999999 14.9113340000000001 31.4762729999999991 C
  atom 1.8273170000000001 16.8694200000000016 32.2459699999999998 H
  atom 5.7951940000000004 10.0167339999999996 35.2145549999999972 H
  atom 7.5367829999999998 10.9117320000000007 34.3887550000000033 C
  atom 9.1540040000000005 12.0380859999999998 33.5492160000000013 H
  atom 2.0209060000000001 17.9655650000000016 35.7104640000000018 H
  atom 1.5514310000000000 19.8454380000000015 34.8038019999999975 C
  atom 2.6533479999999998 20.3546729999999982 32.8215959999999995 C
  atom 4.0235019999999997 18.8604500000000002 32.0702190000000016 H
  atom 4.0126210000000002 23.5963969999999996 37.1406569999999974 H
  atom 1.2878849999999999 15.0019320000000000 30.7674020000000006 H
  atom 8.1059120000000000 9.9820010000000003 34.4190960000000032 H
  atom 0.8420950000000000 20.0821639999999988 35.5956819999999965 H
  atom 1.7744040000000001 20.6973330000000004 33.7976719999999986 C
  atom 2.8423490000000000 21.0277129999999985 31.9859219999999986 H
  atom 1.2522110000000000 21.6538730000000008 33.7478660000000019 H
  
  -----------------------------------------------------------------------
  Completed first pass over input file geometry.in .
  -----------------------------------------------------------------------
  

  Basic array size parameters:
  | Number of species                 :        2
  | Number of atoms                   :       76
  | Max. basis fn. angular momentum   :        4
  | Max. atomic/ionic basis occupied n:        2
  | Max. number of basis fn. types    :        2
  | Max. radial fns per species/type  :        8
  | Max. logarithmic grid size        :     1277
  | Max. radial integration grid size :       69
  | Max. angular integration grid size:      434
  | Max. angular grid division number :        8
  | Radial grid for Hartree potential :     1277
  | Number of spin channels           :        1

------------------------------------------------------------
          Reading file control.in.
------------------------------------------------------------
  XC: Using PBE gradient-corrected functionals.
  Scalar relativistic treatment of kinetic energy: ZORA.
  Threshold value for ZORA:   0.100000E-11
  Occupation type: Gaussian broadening, width =   0.100000E-03 eV.
  Since 'load_balancing .true.' is present in control.in, automatically turning on 'use_local_index .true.'.
  Using load balancing for integrations.
  Kohn-Sham electronic structure solved by the ELSI library.
  Using pulay charge density mixing.
  Pulay mixing - number of memorized iterations:    5
  Charge density mixing - mixing parameter:     0.4000
  Convergence accuracy of total energy:  0.1000E-05
  Convergence accuracy of sum of eigenvalues:  0.1000E-03
  Convergence accuracy of self-consistent charge density:  0.1000E-05
  Maximum number of s.-c. iterations  :   100
  * Ignoring prodbas_threshold
  Threshold for basis singularities:  0.1000E-04
  override_illconditioning: Explicitly overriding any built-in checks for an ill-conditioned overlap matrix.
  *** WARNING: If you use this flag, you should really know what you are doing.
  *** DO NOT keep this flag set by default in all your control.in files.
  Using 1D integrations for auxiliary 2-center integrals.
  Spin treatment: No spin polarisation.
  Charge =   0.000000E+00: Neutral system requested explicitly.
 
  Reading configuration options for species H                   .
  | Found nuclear charge :   1.0000
  | Found atomic mass :    1.00794000000000      amu
  | Found l_max for Hartree potential  :   6
  | Found cutoff potl. onset [A], width [A], scale factor :    4.00000    2.00000    1.00000
  | Threshold for basis-dependent cutoff potential is   0.100000E-03
  | Found data for basic radial integration grid :    24 points, outermost radius =    7.000 A
  | Found multiplier for basic radial grid :   2
  | Found angular grid specification: user-specified.
  | Specified grid contains     6 separate shells.
  | Check grid settings after all constraints further below.
  | Found free-atom valence shell :  1 s   1.000
  | No ionic wave fns used. Skipping ion_occ.
  | Found hydrogenic basis function :  2 s   2.100
  | Found hydrogenic basis function :  2 p   3.500
  | Found hydrogenic basis function :  1 s   0.850
  | Found hydrogenic basis function :  2 p   3.700
  | Found hydrogenic basis function :  2 s   1.200
  | Found hydrogenic basis function :  3 d   7.000
  Species H                   : Missing cutoff potential type.
  Defaulting to exp(1/x)/(1-x)^2 type cutoff potential.
  Species H : No 'logarithmic' tag. Using default grid for free atom:
  | Default logarithmic grid data [bohr] : 0.1000E-03 0.1000E+03 0.1012E+01
  Species H : On-site basis accuracy parameter (for Gram-Schmidt orthonormalisation) not specified.
  Using default value basis_acc =  0.1000000E-03.
  Species H                   : Using default innermost maximum threshold i_radial=  2 for radial functions.
  Species H                   : Default cutoff onset for free atom density etc. : 0.40000000E+01 AA.
  Species H                   : Basic radial grid will be enhanced according to radial_multiplier =   2, to contain    49 grid points.
 
  Reading configuration options for species C                   .
  | Found nuclear charge :   6.0000
  | Found atomic mass :    12.0107000000000      amu
  | Found l_max for Hartree potential  :   6
  | Found cutoff potl. onset [A], width [A], scale factor :    4.00000    2.00000    1.00000
  | Threshold for basis-dependent cutoff potential is   0.100000E-03
  | Found data for basic radial integration grid :    34 points, outermost radius =    7.000 A
  | Found multiplier for basic radial grid :   2
  | Found angular grid specification: user-specified.
  | Specified grid contains     6 separate shells.
  | Check grid settings after all constraints further below.
  | Found free-atom valence shell :  2 s   2.000
  | Found free-atom valence shell :  2 p   2.000
  | No ionic wave fns used. Skipping ion_occ.
  | No ionic wave fns used. Skipping ion_occ.
  | Found hydrogenic basis function :  2 p   1.700
  | Found hydrogenic basis function :  3 d   6.000
  | Found hydrogenic basis function :  2 s   4.900
  | Found hydrogenic basis function :  4 f   9.800
  | Found hydrogenic basis function :  3 p   5.200
  | Found hydrogenic basis function :  3 s   4.300
  | Found hydrogenic basis function :  5 g  14.400
  | Found hydrogenic basis function :  3 d   6.200
  Species C                   : Missing cutoff potential type.
  Defaulting to exp(1/x)/(1-x)^2 type cutoff potential.
  Species C : No 'logarithmic' tag. Using default grid for free atom:
  | Default logarithmic grid data [bohr] : 0.1000E-03 0.1000E+03 0.1012E+01
  Species C : On-site basis accuracy parameter (for Gram-Schmidt orthonormalisation) not specified.
  Using default value basis_acc =  0.1000000E-03.
  Species C                   : Using default innermost maximum threshold i_radial=  2 for radial functions.
  Species C                   : Default cutoff onset for free atom density etc. : 0.40000000E+01 AA.
  Species C                   : Basic radial grid will be enhanced according to radial_multiplier =   2, to contain    69 grid points.
 
  Finished reading input file 'control.in'. Consistency checks are next.
 
  MPI_IN_PLACE appears to work with this MPI implementation.
  | Keeping use_mpi_in_place .true. (see manual).
  Target number of points in a grid batch is not set. Defaulting to  100
  Method for grid partitioning is not set. Defaulting to parallel hash+maxmin partitioning.
  Batch size limit is not set. Defaulting to    200
  By default, will store active basis functions for each batch.
  If in need of memory, prune_basis_once .false. can be used to disable this option.
  communication_type for Hartree potential was not specified.
  Defaulting to calc_hartree .
  Pulay mixer: Number of initial linear mixing iterations not set.
  Defaulting to    0 iterations.
  Work space size for distributed Hartree potential not set.
  Defaulting to   0.200000E+03 MB.
  Algorithm-dependent basis array size parameters:
  | n_max_pulay                         :        5
  Presetting      1001 iterations before the initial mixing cycle
  is restarted anyway using the sc_init_iter criterion / keyword.
  Presetting a factor      1.000 between actual scf density residual
  and density convergence criterion sc_accuracy_rho below which sc_init_iter
  takes no effect.
  Calculation of forces was not defined in control.in. No forces will be calculated.
  Geometry relaxation not requested: no relaxation will be performed.
  No accuracy limit for integral partition fn. given. Defaulting to  0.1000E-14.
  No threshold value for u(r) in integrations given. Defaulting to  0.1000E-05.
  No accuracy for occupation numbers given. Defaulting to  0.1000E-12.
  No threshold value for occupation numbers given. Defaulting to  0.0000E+00.
  No accuracy for fermi level given. Defaulting to  0.1000E-19.
  Maximum # of iterations to find E_F not set. Defaulting to  200.
  Will not use alltoall communication since running on < 1024 CPUs.
  partition_type (choice of integration weights) for integrals was not specified.
  | Using a version of the partition function of Stratmann and coworkers ('stratmann_sparse').
  | At each grid point, the set of atoms used to build the partition table is smoothly restricted to
  | only those atoms whose free-atom density would be non-zero at that grid point.
  Partitioning for Hartree potential was not defined. Using partition_type for integrals.
  | Adjusted default value of keyword multip_moments_threshold to:       0.10000000E-11
  | This value may affect high angular momentum components of the Hartree potential in periodic systems.
  No q(lm)/r^(l+1) cutoff set for long-range Hartree potential.
  | Using default value of  0.100000E-09 .
  | Verify using the multipole_threshold keyword.
  Defaulting to new monopole extrapolation.
  Density update method: automatic selection selected.
 * Warning: use_local_index and/or load_balancing needs packed_matrix_format = index
 * Changing the default setting to packed_matrix_format = index
------------------------------------------------------------


------------------------------------------------------------
          Reading geometry description geometry.in.
------------------------------------------------------------
  Input structure read successfully.
  The structure contains       76 atoms,  and a total of        306.000 electrons.

  Input geometry:
  | No unit cell requested.
  | Atomic structure:
  |       Atom                x [A]            y [A]            z [A]
  |    1: Species H            10.09762700       15.61283300       35.84929000
  |    2: Species C             9.90547600       14.94968400       36.69297900
  |    3: Species C             9.01441400       15.30831100       37.65617300
  |    4: Species C            10.56710200       13.73296000       36.75595200
  |    5: Species C             8.79144100       14.44890000       38.69379000
  |    6: Species C             8.25503600       16.59459700       37.55856600
  |    7: Species C            10.34413000       12.88106500       37.76208200
  |    8: Species H            11.27643800       13.49623400       35.96407200
  |    9: Species H             8.09503200       14.71794900       39.48953400
  |   10: Species C             9.46518600       13.22372500       38.73815700
  |   11: Species C             7.16119100       16.68340200       36.68110000
  |   12: Species C             8.62101100       17.69065600       38.34672500
  |   13: Species H            10.86632200       11.92452500       37.81188700
  |   14: Species H             9.27618400       12.55068500       39.57383200
  |   15: Species C             6.74351400       15.58558600       35.90582200
  |   16: Species C             6.43332000       17.92749500       36.55057500
  |   17: Species C             7.86001700       18.92123500       38.26013800
  |   18: Species C             9.70920200       17.62643200       39.26054300
  |   19: Species C             5.68521400       15.65090300       35.00917800
  |   20: Species H             7.27701600       14.64536600       36.01831400
  |   21: Species C             5.37502000       17.99281200       35.65393200
  |   22: Species C             6.80575700       19.04158700       37.36707200
  |   23: Species C             8.21225800       19.97431400       39.17610300
  |   24: Species H            10.29121600       16.70897800       39.31378400
  |   25: Species C            10.00812300       18.66706400       40.08348000
  |   26: Species C             5.31277600       14.53681100       34.19268100
  |   27: Species C             4.95734200       16.89499600       34.87865300
  |   28: Species H             4.84151700       18.93303200       35.54144000
  |   29: Species C             6.02941500       20.31336900       37.27833800
  |   30: Species H             7.60536100       20.87708100       39.17409900
  |   31: Species C             9.23178000       19.84715300       40.03625100
  |   32: Species H            10.83064800       18.57646700       40.79235100
  |   33: Species C             4.25851600       14.65716300       33.29961600
  |   34: Species C             6.08911900       13.26502900       34.28141500
  |   35: Species C             3.86349700       16.98380100       34.00118700
  |   36: Species C             4.71664500       20.35469700       37.71199000
  |   37: Species C             6.59815600       21.46247500       36.78743800
  |   38: Species H             9.45116500       20.65988800       40.73066700
  |   39: Species C             3.90627500       13.60408500       32.38365100
  |   40: Species C             3.49752300       15.88774200       33.21302800
  |   41: Species C             5.52037700       12.11592300       34.77231500
  |   42: Species C             7.40188900       13.22370100       33.84776300
  |   43: Species C             3.10412000       18.27008700       33.90358000
  |   44: Species H             4.24654400       19.45596900       38.11301100
  |   45: Species C             3.99362000       21.53208500       37.65188000
  |   46: Species C             5.85493600       22.65580800       36.73162100
  |   47: Species H             7.62898400       21.45985900       36.43450500
  |   48: Species C             2.88675300       13.73124500       31.52350300
  |   49: Species H             4.51317200       12.70131700       32.38565400
  |   50: Species C             2.40933200       15.95196600       32.29921000
  |   51: Species H             4.48954900       12.11853900       35.12524800
  |   52: Species C             6.26359700       10.92259000       34.82813200
  |   53: Species C             8.12491300       12.04631300       33.90787400
  |   54: Species H             7.87198900       14.12242900       33.44674200
  |   55: Species C             2.21305800       18.62871400       34.86677400
  |   56: Species C             3.32709200       19.12949800       32.86596400
  |   57: Species H             2.96453000       21.54031200       38.01053700
  |   58: Species C             4.58175000       22.66666600       37.17099800
  |   59: Species H             6.32333900       23.56166400       36.34519900
  |   60: Species H             2.66736800       12.91851000       30.82908700
  |   61: Species C             2.11041000       14.91133400       31.47627300
  |   62: Species H             1.82731700       16.86942000       32.24597000
  |   63: Species H             5.79519400       10.01673400       35.21455500
  |   64: Species C             7.53678300       10.91173200       34.38875500
  |   65: Species H             9.15400400       12.03808600       33.54921600
  |   66: Species H             2.02090600       17.96556500       35.71046400
  |   67: Species C             1.55143100       19.84543800       34.80380200
  |   68: Species C             2.65334800       20.35467300       32.82159600
  |   69: Species H             4.02350200       18.86045000       32.07021900
  |   70: Species H             4.01262100       23.59639700       37.14065700
  |   71: Species H             1.28788500       15.00193200       30.76740200
  |   72: Species H             8.10591200        9.98200100       34.41909600
  |   73: Species H             0.84209500       20.08216400       35.59568200
  |   74: Species C             1.77440400       20.69733300       33.79767200
  |   75: Species H             2.84234900       21.02771300       31.98592200
  |   76: Species H             1.25221100       21.65387300       33.74786600
  |

  | The smallest distance between any two atoms is         1.08687280 AA.
  |
  | The first atom of this pair is atom number                     15 .
  | The second atom of this pair is atom number                    20 .

  Number of empty states per atom not set in control.in - providing a guess from actual geometry.
  | Total number of empty states used during s.c.f. cycle:      183
  If you use a very high smearing, use empty_states (per atom!) in control.in to increase this value.

  Structure-dependent array size parameters: 
  | Maximum number of distinct radial functions  :       18
  | Maximum number of basis functions            :     2244
  | Number of Kohn-Sham states (occupied + empty):      336
------------------------------------------------------------

------------------------------------------------------------
          Preparing all fixed parts of the calculation.
------------------------------------------------------------
  Determining machine precision:
    2.225073858507201E-308
  Setting up grids for atomic and cluster calculations.

  Creating wave function, potential, and density for free atoms.

  Species: H

  List of occupied orbitals and eigenvalues:
    n    l              occ      energy [Ha]    energy [eV]
    1    0           1.0000        -0.238386        -6.4868


  Species: C

  List of occupied orbitals and eigenvalues:
    n    l              occ      energy [Ha]    energy [eV]
    1    0           2.0000       -10.049212      -273.4530
    2    0           2.0000        -0.504761       -13.7352
    2    1           2.0000        -0.193631        -5.2690

  Creating fixed part of basis set: Ionic, confined, hydrogenic.
 
  H                    hydrogenic:
 
  List of hydrogenic basis orbitals: 
    n    l      effective z      eigenvalue [eV]  inner max. [A]     outer max. [A]     outer radius [A]   
    2    0         2.100000       -14.9965           0.193243           1.317208           5.373006
    2    1         3.500000       -41.6672           0.602369           0.602369           4.056063
    1    0         0.850000        -9.8292           0.624871           0.624871           5.373006
    2    1         3.700000       -46.5653           0.573622           0.573622           3.910002
    2    0         1.200000        -4.5995           0.334980           2.228188           5.505995
    3    2         7.000000       -74.0753           0.680699           0.680699           3.769201
 
 
  C                    hydrogenic:
 
  List of hydrogenic basis orbitals: 
    n    l      effective z      eigenvalue [eV]  inner max. [A]     outer max. [A]     outer radius [A]   
    2    1         1.700000        -9.8152           1.245706           1.245706           5.401630
    3    2         6.000000       -54.4226           0.792453           0.792453           4.178599
    2    0         4.900000       -81.6681           0.082559           0.562749           3.353238
    4    3         9.800000       -81.6681           0.863254           0.863254           4.028125
    3    1         5.200000       -40.8774           0.305389           1.215618           4.898362
    3    0         4.300000       -27.9508           0.091041           1.610311           5.401630
    5    4        14.400000      -112.8510           0.917666           0.917666           3.883070
    3    2         6.200000       -58.1113           0.763917           0.763917           4.077671
 

  Adding cutoff potential to free-atom effective potential.
  Creating atomic-like basis functions for current effective potential.

  Species H                   :

  List of atomic basis orbitals and eigenvalues:
    n    l      energy [Ha]    energy [eV]    outer radius [A]
    1    0        -0.238386        -6.4868       5.373006


  Species C                   :

  List of atomic basis orbitals and eigenvalues:
    n    l      energy [Ha]    energy [eV]    outer radius [A]
    1    0       -10.049212      -273.4530       1.934409
    2    0        -0.504761       -13.7352       5.271162
    2    1        -0.193631        -5.2690       5.401630

  Assembling full basis from fixed parts.
  | Species H :   atomic orbital   1 s accepted.
  | Species H :    hydro orbital   2 s accepted.
  | Species H :    hydro orbital   1 s accepted.
  | Species H :    hydro orbital   2 s accepted.
  | Species H :    hydro orbital   2 p accepted.
  | Species H :    hydro orbital   2 p accepted.
  | Species H :    hydro orbital   3 d accepted.
  | Species C :   atomic orbital   1 s accepted.
  | Species C :    hydro orbital   2 s accepted.
  | Species C :   atomic orbital   2 s accepted.
  | Species C :    hydro orbital   3 s accepted.
  | Species C :    hydro orbital   3 p accepted.
  | Species C :   atomic orbital   2 p accepted.
  | Species C :    hydro orbital   2 p accepted.
  | Species C :    hydro orbital   3 d accepted.
  | Species C :    hydro orbital   3 d accepted.
  | Species C :    hydro orbital   4 f accepted.
  | Species C :    hydro orbital   5 g accepted.
 
  Basis size parameters after reduction:
  | Total number of radial functions:       18
  | Total number of basis functions :     2244
 
  Per-task memory consumption for arrays in subroutine allocate_ext:
  |           4.465416MB.
  Testing on-site integration grid accuracy.
  |  Species  Function  <phi|h_atom|phi> (log., in eV)  <phi|h_atom|phi> (rad., in eV)
           1        1                 -6.4870767962                 -6.4871688290
           1        2                 13.5032046589                 13.5028982997
           1        3                 32.8195184817                 32.8119941656
           1        4                 33.8513856511                 33.7670005767 ***
           1        5                 28.8544614965                 28.8544615203
           1        6                 59.6326952547                 59.6327656460
           1        7                 60.2719308513                 60.2719305949
           2        8               -273.4529726040               -273.4529710464
           2        9                -10.7721037319                -10.7721022101
           2       10                 17.6044132601                 17.6044162063
           2       11                 53.7706460658                 53.7706913770
           2       12                 15.0973290362                 15.0973256030
           2       13                  3.8545134692                  3.8545724687
           2       14                 12.1156992592                 12.1182024431
           2       15                 29.4352039302                 29.4352041816
           2       16                 54.8741144708                 54.8740268729
           2       17                 59.3556032049                 59.3556031382
           2       18                 93.4551837154                 93.4551838009
 * Note: Onsite integrals marked "***" above are less accurate than
 * onsite_accuracy_threshold =    0.03000 eV. Usually, this is harmless.
 * When in doubt, tighten the "radial" and/or "radial_multiplier" flags to check.

  Preparing densities etc. for the partition functions (integrals / Hartree potential).

  Preparations completed.
  max(cpu_time)          :      0.198 s.
  Wall clock time (cpu1) :      0.210 s.
------------------------------------------------------------

------------------------------------------------------------
          Begin self-consistency loop: Initialization.

          Date     :  20210620, Time     :  175107.051
------------------------------------------------------------

  Initializing index lists of integration centers etc. from given atomic structure:
  | Number of centers in hartree potential         :        76
  | Number of centers in hartree multipole         :        76
  | Number of centers in electron density summation:        76
  | Number of centers in basis integrals           :        76
  | Number of centers in integrals                 :        76
  | Number of centers in hamiltonian               :        76
  * Using 56 tasks for Scalapack Eigenvalue solver.
  Detailed listing of tasks and assigned k-points:
  (for non-periodic systems, the "k-point" denotes an internal label only)
   Task     0 k-point     1 on f001
   Task     1 k-point     1 on f001
   Task     2 k-point     1 on f001
   Task     3 k-point     1 on f001
   Task     4 k-point     1 on f001
   Task     5 k-point     1 on f001
   Task     6 k-point     1 on f001
   Task     7 k-point     1 on f001
   Task     8 k-point     1 on f001
   Task     9 k-point     1 on f001
   Task    10 k-point     1 on f001
   Task    11 k-point     1 on f001
   Task    12 k-point     1 on f001
   Task    13 k-point     1 on f001
   Task    14 k-point     1 on f001
   Task    15 k-point     1 on f001
   Task    16 k-point     1 on f001
   Task    17 k-point     1 on f001
   Task    18 k-point     1 on f001
   Task    19 k-point     1 on f001
   Task    20 k-point     1 on f001
   Task    21 k-point     1 on f001
   Task    22 k-point     1 on f001
   Task    23 k-point     1 on f001
   Task    24 k-point     1 on f001
   Task    25 k-point     1 on f001
   Task    26 k-point     1 on f001
   Task    27 k-point     1 on f001
   Task    28 k-point     1 on f001
   Task    29 k-point     1 on f001
   Task    30 k-point     1 on f001
   Task    31 k-point     1 on f001
   Task    32 k-point     1 on f001
   Task    33 k-point     1 on f001
   Task    34 k-point     1 on f001
   Task    35 k-point     1 on f001
   Task    36 k-point     1 on f001
   Task    37 k-point     1 on f001
   Task    38 k-point     1 on f001
   Task    39 k-point     1 on f001
   Task    40 k-point     1 on f001
   Task    41 k-point     1 on f001
   Task    42 k-point     1 on f001
   Task    43 k-point     1 on f001
   Task    44 k-point     1 on f001
   Task    45 k-point     1 on f001
   Task    46 k-point     1 on f001
   Task    47 k-point     1 on f001
   Task    48 k-point     1 on f001
   Task    49 k-point     1 on f001
   Task    50 k-point     1 on f001
   Task    51 k-point     1 on f001
   Task    52 k-point     1 on f001
   Task    53 k-point     1 on f001
   Task    54 k-point     1 on f001
   Task    55 k-point     1 on f001
  Tasks:    56 split into      8 X      7 BLACS grid
  Calculating block size based on n_basis =         2244 max_nprow =            8 max_npcol =            7
  ScaLAPACK block size set to:           16
  Allocating        0.746 MB for ovlp
  Allocating        0.746 MB for ham
  Allocating        0.746 MB for eigenvec
  Required Scalapack workspace - INTEGER:            1 REAL:             1
  Partitioning the integration grid into batches with parallel hashing+maxmin method.
  | Number of batches:    11050
  | Maximal batch size:     200
  | Minimal batch size:       1
  | Average batch size:     114.488
  | Standard deviation of batch sizes:      35.529

  Integration load balanced across     56 MPI tasks.
  Work distribution over tasks is as follows:
  Task      0 has      22654 integration points.
  Task      1 has      22663 integration points.
  Task      2 has      22510 integration points.
  Task      3 has      22615 integration points.
  Task      4 has      22585 integration points.
  Task      5 has      22622 integration points.
  Task      6 has      22520 integration points.
  Task      7 has      22662 integration points.
  Task      8 has      22661 integration points.
  Task      9 has      22531 integration points.
  Task     10 has      22699 integration points.
  Task     11 has      22511 integration points.
  Task     12 has      22538 integration points.
  Task     13 has      22537 integration points.
  Task     14 has      22700 integration points.
  Task     15 has      22610 integration points.
  Task     16 has      22560 integration points.
  Task     17 has      22666 integration points.
  Task     18 has      22661 integration points.
  Task     19 has      22541 integration points.
  Task     20 has      22461 integration points.
  Task     21 has      22661 integration points.
  Task     22 has      22686 integration points.
  Task     23 has      22468 integration points.
  Task     24 has      22595 integration points.
  Task     25 has      22551 integration points.
  Task     26 has      22577 integration points.
  Task     27 has      22499 integration points.
  Task     28 has      22696 integration points.
  Task     29 has      22605 integration points.
  Task     30 has      22561 integration points.
  Task     31 has      22756 integration points.
  Task     32 has      22450 integration points.
  Task     33 has      22643 integration points.
  Task     34 has      22490 integration points.
  Task     35 has      22668 integration points.
  Task     36 has      22628 integration points.
  Task     37 has      22513 integration points.
  Task     38 has      22696 integration points.
  Task     39 has      22618 integration points.
  Task     40 has      22587 integration points.
  Task     41 has      22475 integration points.
  Task     42 has      22672 integration points.
  Task     43 has      22649 integration points.
  Task     44 has      22529 integration points.
  Task     45 has      22651 integration points.
  Task     46 has      22493 integration points.
  Task     47 has      22606 integration points.
  Task     48 has      22498 integration points.
  Task     49 has      22718 integration points.
  Task     50 has      22565 integration points.
  Task     51 has      22488 integration points.
  Task     52 has      22723 integration points.
  Task     53 has      22483 integration points.
  Task     54 has      22626 integration points.
  Task     55 has      22457 integration points.
  Initializing partition tables, free-atom densities, potentials, etc. across the integration grid (initialize_grid_storage).
  | initialize_grid_storage: Actual outermost partition radius vs. multipole_radius_free
  | (-- VB: in principle, multipole_radius_free should be larger, hence this output)
  | Species        1: Confinement radius =              6.000000000000000 AA, multipole_radius_free =              6.071692442739658 AA.
  | Species        1: outer_partition_radius set to              6.071692442739658 AA .
  | Species        2: Confinement radius =              6.000000000000000 AA, multipole_radius_free =              6.029870734432609 AA.
  | Species        2: outer_partition_radius set to              6.029870734432609 AA .
  | The sparse table of interatomic distances needs     68.7080 kbyte instead of    46.2080 kbyte of memory.
  | Using the partition_type stratmann_smoother will reduce your memory usage.
  | Net number of integration points:  1265088
  | of which are non-zero points    :   990996
  Renormalizing the initial density to the exact electron count on the 3D integration grid.
  | Initial density: Formal number of electrons (from input files) :     306.0000000000
  | Integrated number of electrons on 3D grid     :     305.9997500548
  | Charge integration error                      :      -0.0002499452
  | Normalization factor for density and gradient :       1.0000008168
  Obtaining max. number of non-zero basis functions in each batch (get_n_compute_maxes).
  | Maximal number of non-zero basis functions:     1117
  Selecting the method for density update.
  Loop over occupied states selected for charge density update.
  Hamiltonian matrix size:
  | Size of matrix non-packed:               2518890
  | Size of matrix packed:         1991955
  Allocating        6.032 MB for KS_eigenvector
  use_local_index: Max. local matrix size =      1421105
  Task:     0 matrix size:     248922
  Task:     1 matrix size:     277126
  Task:     2 matrix size:     443084
  Task:     3 matrix size:     371477
  Task:     4 matrix size:     482904
  Task:     5 matrix size:     706526
  Task:     6 matrix size:     917879
  Task:     7 matrix size:     376485
  Task:     8 matrix size:     930085
  Task:     9 matrix size:    1129189
  Task:    10 matrix size:     858875
  Task:    11 matrix size:     859107
  Task:    12 matrix size:    1402032
  Task:    13 matrix size:    1421105
  Task:    14 matrix size:     335916
  Task:    15 matrix size:     498193
  Task:    16 matrix size:     406658
  Task:    17 matrix size:     743184
  Task:    18 matrix size:     993419
  Task:    19 matrix size:    1083841
  Task:    20 matrix size:     548114
  Task:    21 matrix size:     543162
  Task:    22 matrix size:     363498
  Task:    23 matrix size:     256829
  Task:    24 matrix size:     986727
  Task:    25 matrix size:     622215
  Task:    26 matrix size:     721109
  Task:    27 matrix size:     429890
  Task:    28 matrix size:     480511
  Task:    29 matrix size:     611899
  Task:    30 matrix size:     979179
  Task:    31 matrix size:     277129
  Task:    32 matrix size:     346142
  Task:    33 matrix size:     438295
  Task:    34 matrix size:     674587
  Task:    35 matrix size:    1001134
  Task:    36 matrix size:    1084640
  Task:    37 matrix size:     904463
  Task:    38 matrix size:     414648
  Task:    39 matrix size:     581252
  Task:    40 matrix size:     365594
  Task:    41 matrix size:     478465
  Task:    42 matrix size:    1410131
  Task:    43 matrix size:    1130649
  Task:    44 matrix size:    1132136
  Task:    45 matrix size:    1173021
  Task:    46 matrix size:     459368
  Task:    47 matrix size:     975903
  Task:    48 matrix size:     881041
  Task:    49 matrix size:     874532
  Task:    50 matrix size:     589002
  Task:    51 matrix size:     378446
  Task:    52 matrix size:     528038
  Task:    53 matrix size:     343903
  Task:    54 matrix size:     379333
  Task:    55 matrix size:     280480
  Integrating Hamiltonian matrix: batch-based integration.
  Time summed over all CPUs for integration: real work      281.124 s, elapsed      505.846 s
  Time get_set_sparse_local_matrix_scalapack:     0.026833 s
  Start compute_balanced_batch_distribution
  Done load balancing, time needed:      0.013 s
  Integrating overlap matrix with loadbalancing
  Time summed over all CPUs for integration: real work       81.841 s, elapsed       96.162 s
  Time get_set_full_local_matrix_scalapack:     0.032560 s

  Updating Kohn-Sham eigenvalues and eigenvectors using ELSI and the ELPA eigensolver.
  Overlap matrix is not singular
  | Lowest and highest eigenvalues :  0.12E+02,  0.83E-04
  Finished singularity check of overlap matrix
  | Time :     0.187 s
  Finished Cholesky decomposition
  | Time :     0.039 s
  Finished transformation to standard eigenproblem
  | Time :     0.057 s
  Starting ELPA eigensolver
  Finished solving standard eigenproblem
  | Time :     0.206 s
  Finished back-transformation of eigenvectors
  | Time :     0.010 s

  Obtaining occupation numbers and chemical potential using ELSI.
  | Chemical potential (Fermi level):    -8.07918855 eV
  Writing Kohn-Sham eigenvalues.

  State    Occupation    Eigenvalue [Ha]    Eigenvalue [eV]
      1       2.00000         -10.185296         -277.15602
      2       2.00000         -10.185296         -277.15601
      3       2.00000         -10.182155         -277.07053
      4       2.00000         -10.182155         -277.07053
      5       2.00000         -10.181069         -277.04098
      6       2.00000         -10.181069         -277.04098
      7       2.00000         -10.177095         -276.93286
      8       2.00000         -10.177095         -276.93285
      9       2.00000         -10.176222         -276.90910
     10       2.00000         -10.176222         -276.90910
     11       2.00000         -10.175712         -276.89522
     12       2.00000         -10.175712         -276.89522
     13       2.00000         -10.175676         -276.89424
     14       2.00000         -10.175676         -276.89424
     15       2.00000         -10.175441         -276.88784
     16       2.00000         -10.175441         -276.88784
     17       2.00000         -10.175048         -276.87714
     18       2.00000         -10.175048         -276.87713
     19       2.00000         -10.173877         -276.84528
     20       2.00000         -10.173877         -276.84528
     21       2.00000         -10.173650         -276.83911
     22       2.00000         -10.173650         -276.83910
     23       2.00000         -10.172981         -276.82090
     24       2.00000         -10.172981         -276.82090
     25       2.00000         -10.172349         -276.80369
     26       2.00000         -10.172349         -276.80369
     27       2.00000         -10.171722         -276.78663
     28       2.00000         -10.171722         -276.78663
     29       2.00000         -10.171493         -276.78040
     30       2.00000         -10.171493         -276.78040
     31       2.00000         -10.170163         -276.74423
     32       2.00000         -10.170163         -276.74422
     33       2.00000         -10.169501         -276.72620
     34       2.00000         -10.169500         -276.72617
     35       2.00000         -10.166098         -276.63361
     36       2.00000         -10.166091         -276.63342
     37       2.00000         -10.165304         -276.61199
     38       2.00000         -10.165298         -276.61183
     39       2.00000         -10.164740         -276.59664
     40       2.00000         -10.164740         -276.59664
     41       2.00000         -10.164242         -276.58310
     42       2.00000         -10.164242         -276.58309
     43       2.00000         -10.161926         -276.52008
     44       2.00000         -10.161926         -276.52007
     45       2.00000         -10.160486         -276.48090
     46       2.00000         -10.160486         -276.48090
     47       2.00000          -1.024451          -27.87673
     48       2.00000          -1.020521          -27.76978
     49       2.00000          -1.014365          -27.60228
     50       2.00000          -1.012782          -27.55920
     51       2.00000          -1.004243          -27.32683
     52       2.00000          -1.000078          -27.21351
     53       2.00000          -0.985467          -26.81593
     54       2.00000          -0.960020          -26.12348
     55       2.00000          -0.944376          -25.69777
     56       2.00000          -0.938242          -25.53086
     57       2.00000          -0.927037          -25.22596
     58       2.00000          -0.905228          -24.63249
     59       2.00000          -0.902397          -24.55548
     60       2.00000          -0.894834          -24.34966
     61       2.00000          -0.892501          -24.28620
     62       2.00000          -0.890801          -24.23993
     63       2.00000          -0.890355          -24.22780
     64       2.00000          -0.889359          -24.20069
     65       2.00000          -0.888081          -24.16592
     66       2.00000          -0.887645          -24.15405
     67       2.00000          -0.874714          -23.80219
     68       2.00000          -0.858791          -23.36888
     69       2.00000          -0.832370          -22.64994
     70       2.00000          -0.810508          -22.05504
     71       2.00000          -0.778205          -21.17602
     72       2.00000          -0.776566          -21.13144
     73       2.00000          -0.771028          -20.98073
     74       2.00000          -0.763155          -20.76651
     75       2.00000          -0.763009          -20.76252
     76       2.00000          -0.758881          -20.65020
     77       2.00000          -0.757173          -20.60373
     78       2.00000          -0.757110          -20.60202
     79       2.00000          -0.748761          -20.37483
     80       2.00000          -0.746200          -20.30513
     81       2.00000          -0.727985          -19.80948
     82       2.00000          -0.717885          -19.53464
     83       2.00000          -0.715401          -19.46706
     84       2.00000          -0.712672          -19.39280
     85       2.00000          -0.679109          -18.47951
     86       2.00000          -0.678413          -18.46056
     87       2.00000          -0.674498          -18.35402
     88       2.00000          -0.664611          -18.08500
     89       2.00000          -0.661685          -18.00538
     90       2.00000          -0.658039          -17.90615
     91       2.00000          -0.647271          -17.61313
     92       2.00000          -0.644216          -17.53002
     93       2.00000          -0.643778          -17.51810
     94       2.00000          -0.640029          -17.41607
     95       2.00000          -0.637659          -17.35158
     96       2.00000          -0.636497          -17.31995
     97       2.00000          -0.630714          -17.16259
     98       2.00000          -0.612331          -16.66238
     99       2.00000          -0.611201          -16.63162
    100       2.00000          -0.601942          -16.37967
    101       2.00000          -0.592673          -16.12746
    102       2.00000          -0.592299          -16.11728
    103       2.00000          -0.579553          -15.77043
    104       2.00000          -0.579515          -15.76940
    105       2.00000          -0.579005          -15.75552
    106       2.00000          -0.578504          -15.74188
    107       2.00000          -0.577133          -15.70459
    108       2.00000          -0.575240          -15.65308
    109       2.00000          -0.573368          -15.60214
    110       2.00000          -0.571008          -15.53791
    111       2.00000          -0.567089          -15.43128
    112       2.00000          -0.566175          -15.40639
    113       2.00000          -0.566088          -15.40404
    114       2.00000          -0.565402          -15.38538
    115       2.00000          -0.565297          -15.38253
    116       2.00000          -0.558927          -15.20917
    117       2.00000          -0.554929          -15.10039
    118       2.00000          -0.531059          -14.45085
    119       2.00000          -0.520455          -14.16231
    120       2.00000          -0.520421          -14.16137
    121       2.00000          -0.519592          -14.13880
    122       2.00000          -0.518698          -14.11449
    123       2.00000          -0.513982          -13.98617
    124       2.00000          -0.513961          -13.98559
    125       2.00000          -0.510144          -13.88174
    126       2.00000          -0.507766          -13.81703
    127       2.00000          -0.505425          -13.75331
    128       2.00000          -0.505080          -13.74391
    129       2.00000          -0.504575          -13.73019
    130       2.00000          -0.503053          -13.68877
    131       2.00000          -0.502667          -13.67828
    132       2.00000          -0.501956          -13.65891
    133       2.00000          -0.501118          -13.63612
    134       2.00000          -0.499555          -13.59359
    135       2.00000          -0.496850          -13.51998
    136       2.00000          -0.482310          -13.12432
    137       2.00000          -0.475042          -12.92655
    138       2.00000          -0.462470          -12.58445
    139       2.00000          -0.444658          -12.09977
    140       2.00000          -0.431291          -11.73603
    141       2.00000          -0.425892          -11.58911
    142       2.00000          -0.418539          -11.38901
    143       2.00000          -0.416952          -11.34585
    144       2.00000          -0.413069          -11.24018
    145       2.00000          -0.411377          -11.19413
    146       2.00000          -0.410369          -11.16670
    147       2.00000          -0.406481          -11.06091
    148       2.00000          -0.404193          -10.99864
    149       2.00000          -0.403771          -10.98717
    150       2.00000          -0.402153          -10.94314
    151       2.00000          -0.390341          -10.62173
    152       2.00000          -0.369395          -10.05176
    153       2.00000          -0.330993           -9.00678
    154       0.00000          -0.286031           -7.78330
    155       0.00000          -0.242593           -6.60128
    156       0.00000          -0.224673           -6.11366
    157       0.00000          -0.218658           -5.94998
    158       0.00000          -0.216625           -5.89466
    159       0.00000          -0.214364           -5.83314
    160       0.00000          -0.211944           -5.76728
    161       0.00000          -0.210207           -5.72002
    162       0.00000          -0.209663           -5.70521
    163       0.00000          -0.209288           -5.69502
    164       0.00000          -0.207111           -5.63577
    165       0.00000          -0.197681           -5.37918
    166       0.00000          -0.180485           -4.91126
    167       0.00000          -0.171660           -4.67110
    168       0.00000          -0.158888           -4.32355
    169       0.00000          -0.127516           -3.46988
    170       0.00000          -0.084962           -2.31195
    171       0.00000          -0.079920           -2.17474
    172       0.00000          -0.073161           -1.99080
    173       0.00000          -0.072856           -1.98250
    174       0.00000          -0.070288           -1.91264
    175       0.00000          -0.069481           -1.89066
    176       0.00000          -0.067591           -1.83924
    177       0.00000          -0.066042           -1.79710
    178       0.00000          -0.065582           -1.78458
    179       0.00000          -0.065281           -1.77638
    180       0.00000          -0.061707           -1.67913
    181       0.00000          -0.057918           -1.57603
    182       0.00000          -0.047180           -1.28383
    183       0.00000          -0.045679           -1.24300
    184       0.00000          -0.042874           -1.16665
    185       0.00000          -0.039610           -1.07784
    186       0.00000          -0.037154           -1.01102
    187       0.00000          -0.036502           -0.99326
    188       0.00000          -0.034499           -0.93877
    189       0.00000          -0.032964           -0.89700
    190       0.00000          -0.027857           -0.75802
    191       0.00000          -0.025018           -0.68078
    192       0.00000          -0.024387           -0.66361
    193       0.00000          -0.021375           -0.58164
    194       0.00000          -0.021363           -0.58131
    195       0.00000          -0.019748           -0.53738
    196       0.00000          -0.013019           -0.35426
    197       0.00000          -0.012655           -0.34435
    198       0.00000          -0.011702           -0.31842
    199       0.00000          -0.011180           -0.30421
    200       0.00000          -0.006254           -0.17018
    201       0.00000          -0.001679           -0.04570
    202       0.00000           0.002118            0.05765
    203       0.00000           0.003828            0.10416
    204       0.00000           0.004435            0.12069
    205       0.00000           0.005905            0.16068
    206       0.00000           0.006570            0.17877
    207       0.00000           0.010813            0.29424
    208       0.00000           0.013427            0.36536
    209       0.00000           0.015184            0.41317
    210       0.00000           0.016179            0.44026
    211       0.00000           0.027253            0.74158
    212       0.00000           0.028518            0.77603
    213       0.00000           0.034533            0.93970
    214       0.00000           0.038885            1.05812
    215       0.00000           0.039607            1.07776
    216       0.00000           0.040560            1.10368
    217       0.00000           0.046870            1.27539
    218       0.00000           0.047076            1.28102
    219       0.00000           0.048320            1.31486
    220       0.00000           0.048352            1.31572
    221       0.00000           0.050451            1.37284
    222       0.00000           0.054534            1.48394
    223       0.00000           0.055732            1.51654
    224       0.00000           0.057091            1.55354
    225       0.00000           0.059472            1.61832
    226       0.00000           0.062481            1.70019
    227       0.00000           0.063395            1.72506
    228       0.00000           0.063723            1.73398
    229       0.00000           0.065124            1.77211
    230       0.00000           0.068594            1.86654
    231       0.00000           0.068793            1.87196
    232       0.00000           0.069805            1.89948
    233       0.00000           0.070579            1.92055
    234       0.00000           0.071785            1.95338
    235       0.00000           0.073171            1.99108
    236       0.00000           0.073241            1.99300
    237       0.00000           0.076868            2.09170
    238       0.00000           0.078392            2.13316
    239       0.00000           0.079256            2.15667
    240       0.00000           0.081781            2.22537
    241       0.00000           0.086275            2.34765
    242       0.00000           0.086430            2.35187
    243       0.00000           0.088769            2.41553
    244       0.00000           0.091514            2.49023
    245       0.00000           0.093235            2.53706
    246       0.00000           0.095589            2.60111
    247       0.00000           0.097483            2.65266
    248       0.00000           0.099100            2.69665
    249       0.00000           0.099526            2.70824
    250       0.00000           0.101763            2.76912
    251       0.00000           0.101834            2.77105
    252       0.00000           0.105409            2.86832
    253       0.00000           0.109519            2.98015
    254       0.00000           0.110387            3.00378
    255       0.00000           0.113092            3.07739
    256       0.00000           0.113120            3.07815
    257       0.00000           0.114046            3.10334
    258       0.00000           0.115965            3.15557
    259       0.00000           0.116141            3.16035
    260       0.00000           0.119292            3.24611
    261       0.00000           0.120537            3.27997
    262       0.00000           0.121773            3.31361
    263       0.00000           0.122473            3.33267
    264       0.00000           0.126243            3.43525
    265       0.00000           0.130523            3.55170
    266       0.00000           0.131505            3.57844
    267       0.00000           0.132605            3.60838
    268       0.00000           0.135801            3.69532
    269       0.00000           0.137881            3.75192
    270       0.00000           0.138313            3.76368
    271       0.00000           0.141149            3.84085
    272       0.00000           0.142543            3.87880
    273       0.00000           0.144098            3.92110
    274       0.00000           0.145601            3.96199
    275       0.00000           0.147088            4.00247
    276       0.00000           0.148122            4.03060
    277       0.00000           0.149219            4.06046
    278       0.00000           0.152497            4.14966
    279       0.00000           0.154269            4.19787
    280       0.00000           0.154380            4.20088
    281       0.00000           0.156880            4.26892
    282       0.00000           0.158914            4.32426
    283       0.00000           0.161719            4.40059
    284       0.00000           0.164026            4.46338
    285       0.00000           0.165863            4.51336
    286       0.00000           0.168463            4.58411
    287       0.00000           0.169734            4.61870
    288       0.00000           0.171782            4.67443
    289       0.00000           0.171924            4.67829
    290       0.00000           0.173414            4.71883
    291       0.00000           0.174923            4.75989
    292       0.00000           0.177960            4.84253
    293       0.00000           0.179407            4.88192
    294       0.00000           0.180591            4.91413
    295       0.00000           0.183251            4.98651
    296       0.00000           0.183617            4.99648
    297       0.00000           0.189570            5.15846
    298       0.00000           0.191416            5.20868
    299       0.00000           0.193836            5.27455
    300       0.00000           0.193956            5.27782
    301       0.00000           0.196296            5.34148
    302       0.00000           0.197786            5.38203
    303       0.00000           0.199328            5.42399
    304       0.00000           0.203278            5.53149
    305       0.00000           0.203523            5.53814
    306       0.00000           0.203915            5.54880
    307       0.00000           0.206348            5.61502
    308       0.00000           0.208145            5.66392
    309       0.00000           0.208341            5.66925
    310       0.00000           0.210101            5.71714
    311       0.00000           0.210526            5.72869
    312       0.00000           0.216546            5.89252
    313       0.00000           0.220403            5.99748
    314       0.00000           0.221026            6.01442
    315       0.00000           0.222343            6.05025
    316       0.00000           0.222915            6.06583
    317       0.00000           0.229196            6.23673
    318       0.00000           0.231058            6.28740
    319       0.00000           0.232706            6.33225
    320       0.00000           0.233253            6.34713
    321       0.00000           0.237513            6.46306
    322       0.00000           0.238967            6.50263
    323       0.00000           0.243739            6.63247
    324       0.00000           0.245371            6.67689
    325       0.00000           0.245633            6.68402
    326       0.00000           0.251218            6.83600
    327       0.00000           0.251962            6.85623
    328       0.00000           0.252814            6.87942
    329       0.00000           0.256699            6.98513
    330       0.00000           0.260521            7.08915
    331       0.00000           0.264503            7.19749
    332       0.00000           0.266359            7.24801
    333       0.00000           0.267413            7.27667
    334       0.00000           0.268772            7.31366
    335       0.00000           0.274506            7.46968
    336       0.00000           0.275151            7.48724

  Highest occupied state (VBM) at     -9.00678389 eV
  | Occupation number:      2.00000000

  Lowest unoccupied state (CBM) at    -7.78329971 eV
  | Occupation number:      0.00000000

  Overall HOMO-LUMO gap:      1.22348418 eV.
  Calculating total energy contributions from superposition of free atom densities.

  Total energy components:
  | Sum of eigenvalues            :       -1074.81505885 Ha      -29247.20583266 eV
  | XC energy correction          :        -254.46327606 Ha       -6924.29804604 eV
  | XC potential correction       :         326.86879018 Ha        8894.55233063 eV
  | Free-atom electrostatic energy:        -770.06890853 Ha      -20954.64116139 eV
  | Hartree energy correction     :           0.00000000 Ha           0.00000000 eV
  | Entropy correction            :           0.00000000 Ha           0.00000000 eV
  | ---------------------------
  | Total energy                  :       -1772.47845325 Ha      -48231.59270946 eV
  | Total energy, T -> 0          :       -1772.47845325 Ha      -48231.59270946 eV  <-- do not rely on this value for anything but (periodic) metals
  | Electronic free energy        :       -1772.47845325 Ha      -48231.59270946 eV

  Derived energy quantities:
  | Kinetic energy                :        1755.80842157 Ha       47777.97806779 eV
  | Electrostatic energy          :       -3273.82359877 Ha      -89085.27273122 eV
  | Energy correction for multipole
  | error in Hartree potential    :           0.00000000 Ha           0.00000000 eV
  | Sum of eigenvalues per atom                           :        -384.83165569 eV
  | Total energy (T->0) per atom                          :        -634.62621986 eV  <-- do not rely on this value for anything but (periodic) metals
  | Electronic free energy per atom                       :        -634.62621986 eV
  Initialize hartree_potential_storage
  Max. number of atoms included in rho_multipole:           76

  End scf initialization - timings             :  max(cpu_time)    wall_clock(cpu1)
  | Time for scf. initialization               :       14.832 s          14.891 s
  | Boundary condition initialization          :        0.001 s           0.004 s
  | Integration                                :       10.859 s          10.864 s
  | Solution of K.-S. eqns.                    :        0.534 s           0.550 s
  | Grid partitioning                          :        1.428 s           1.433 s
  | Preloading free-atom quantities on grid    :        0.013 s           0.016 s
  | Free-atom superposition energy             :        0.134 s           0.135 s
  | Total energy evaluation                    :        0.001 s           0.005 s

  Partial memory accounting:
  | Current value for overall tracked memory usage on task 0  :           9.268 MB
  | Peak value for overall tracked memory usage on task 0     :          37.352 MB after allocating zora_vector2
  | Largest tracked array allocation on task 0 so far         :           9.982 MB  when allocating hamiltonian_shell
  Note:  These values currently only include a subset of arrays which are explicitly tracked.
  The "true" memory usage will be greater.
------------------------------------------------------------

------------------------------------------------------------
          Begin self-consistency iteration #    1

  Date     :  20210620, Time     :  175121.945
------------------------------------------------------------
  Evaluating new KS density.
  Integration grid: deviation in total charge (<rho> - N_e) =   0.000000E+00
  Pulay mixing of updated and previous charge densities.

  Evaluating partitioned Hartree potential by multipole expansion.
  | Analytical far-field extrapolation by fixed multipoles:
  | Hartree multipole sum: apparent total charge =  -0.265648E-03
  Summing up the Hartree potential with load balancing.
  Time summed over all CPUs for potential: real work       57.652 s, elapsed       93.898 s
  | RMS charge density error from multipole expansion :   0.165674E-01

  Start compute_balanced_batch_distribution
  Done load balancing, time needed:      0.011 s
  Integrating Hamiltonian matrix: batch-based integration with load balancing
  Time summed over all CPUs for integration: real work      304.234 s, elapsed      334.846 s
  Time get_set_full_local_matrix_scalapack:     0.032444 s
  Start compute_balanced_batch_distribution
  Done load balancing, time needed:      0.012 s

  Updating Kohn-Sham eigenvalues and eigenvectors using ELSI and the ELPA eigensolver.
  Finished transformation to standard eigenproblem
  | Time :     0.059 s
  Starting ELPA eigensolver
  Finished solving standard eigenproblem
  | Time :     0.205 s
  Finished back-transformation of eigenvectors
  | Time :     0.010 s

  Obtaining occupation numbers and chemical potential using ELSI.
  | Chemical potential (Fermi level):    -5.50237445 eV
  Writing Kohn-Sham eigenvalues.

  State    Occupation    Eigenvalue [Ha]    Eigenvalue [eV]
      1       2.00000          -9.987994         -271.78714
      2       2.00000          -9.987994         -271.78714
      3       2.00000          -9.984651         -271.69618
      4       2.00000          -9.984651         -271.69618
      5       2.00000          -9.980669         -271.58782
      6       2.00000          -9.980668         -271.58780
      7       2.00000          -9.979411         -271.55360
      8       2.00000          -9.979411         -271.55358
      9       2.00000          -9.976806         -271.48270
     10       2.00000          -9.976806         -271.48270
     11       2.00000          -9.976374         -271.47094
     12       2.00000          -9.976373         -271.47093
     13       2.00000          -9.967039         -271.21694
     14       2.00000          -9.967039         -271.21694
     15       2.00000          -9.962511         -271.09371
     16       2.00000          -9.962511         -271.09371
     17       2.00000          -9.950840         -270.77613
     18       2.00000          -9.950840         -270.77613
     19       2.00000          -9.945417         -270.62856
     20       2.00000          -9.945417         -270.62856
     21       2.00000          -9.943572         -270.57835
     22       2.00000          -9.943572         -270.57835
     23       2.00000          -9.943320         -270.57150
     24       2.00000          -9.943320         -270.57150
     25       2.00000          -9.941793         -270.52995
     26       2.00000          -9.941793         -270.52995
     27       2.00000          -9.941570         -270.52388
     28       2.00000          -9.941570         -270.52388
     29       2.00000          -9.941376         -270.51860
     30       2.00000          -9.941376         -270.51859
     31       2.00000          -9.939837         -270.47674
     32       2.00000          -9.939837         -270.47673
     33       2.00000          -9.939539         -270.46862
     34       2.00000          -9.939539         -270.46862
     35       2.00000          -9.939052         -270.45536
     36       2.00000          -9.939052         -270.45536
     37       2.00000          -9.937324         -270.40835
     38       2.00000          -9.937324         -270.40835
     39       2.00000          -9.937204         -270.40508
     40       2.00000          -9.937204         -270.40508
     41       2.00000          -9.933734         -270.31064
     42       2.00000          -9.933733         -270.31064
     43       2.00000          -9.930681         -270.22757
     44       2.00000          -9.930681         -270.22757
     45       2.00000          -9.930393         -270.21975
[...]
    166       0.00000          -0.014737           -0.40102
    167       0.00000          -0.011149           -0.30338
    168       0.00000          -0.008023           -0.21831
    169       0.00000          -0.001359           -0.03698
    170       0.00000          -0.000483           -0.01314
    171       0.00000           0.005100            0.13879
    172       0.00000           0.005324            0.14488
    173       0.00000           0.007872            0.21421
    174       0.00000           0.011134            0.30296
    175       0.00000           0.011398            0.31016
    176       0.00000           0.014465            0.39361
    177       0.00000           0.016584            0.45129
    178       0.00000           0.023598            0.64212
    179       0.00000           0.031656            0.86139
    180       0.00000           0.032805            0.89266
    181       0.00000           0.032948            0.89655
    182       0.00000           0.033492            0.91135
    183       0.00000           0.035616            0.96915
    184       0.00000           0.040619            1.10530
    185       0.00000           0.044692            1.21614
    186       0.00000           0.048923            1.33126
    187       0.00000           0.049238            1.33983
    188       0.00000           0.049813            1.35549
    189       0.00000           0.051678            1.40622
    190       0.00000           0.054978            1.49603
    191       0.00000           0.057041            1.55217
    192       0.00000           0.059871            1.62918
    193       0.00000           0.063184            1.71934
    194       0.00000           0.063751            1.73477
    195       0.00000           0.068266            1.85761
    196       0.00000           0.074845            2.03662
    197       0.00000           0.075650            2.05854
    198       0.00000           0.082257            2.23832
    199       0.00000           0.085545            2.32781
    200       0.00000           0.094639            2.57526
    201       0.00000           0.102489            2.78888
    202       0.00000           0.104991            2.85695
    203       0.00000           0.108946            2.96457
    204       0.00000           0.110974            3.01976
    205       0.00000           0.113745            3.09517
    206       0.00000           0.115659            3.14725
    207       0.00000           0.116598            3.17278
    208       0.00000           0.121087            3.29494
    209       0.00000           0.127350            3.46538
    210       0.00000           0.128747            3.50337
    211       0.00000           0.132634            3.60915
    212       0.00000           0.137012            3.72827
    213       0.00000           0.138377            3.76543
    214       0.00000           0.138968            3.78151
    215       0.00000           0.142773            3.88504
    216       0.00000           0.143824            3.91365
    217       0.00000           0.144136            3.92213
    218       0.00000           0.147146            4.00404
    219       0.00000           0.147446            4.01220
    220       0.00000           0.148386            4.03779
    221       0.00000           0.151856            4.13220
    222       0.00000           0.155275            4.22526
    223       0.00000           0.155602            4.23416
    224       0.00000           0.158362            4.30926
    225       0.00000           0.159051            4.32800
    226       0.00000           0.159407            4.33769
    227       0.00000           0.165107            4.49278
    228       0.00000           0.165382            4.50027
    229       0.00000           0.168903            4.59608
    230       0.00000           0.170417            4.63727
    231       0.00000           0.172470            4.69314
    232       0.00000           0.176263            4.79636
    233       0.00000           0.178462            4.85620
    234       0.00000           0.179253            4.87772
    235       0.00000           0.179547            4.88571
    236       0.00000           0.180510            4.91192
    237       0.00000           0.184818            5.02916
    238       0.00000           0.188791            5.13727
    239       0.00000           0.190392            5.18083
    240       0.00000           0.191285            5.20513
    241       0.00000           0.192329            5.23354
    242       0.00000           0.197054            5.36212
    243       0.00000           0.197101            5.36338
    244       0.00000           0.199644            5.43260
    245       0.00000           0.203637            5.54125
    246       0.00000           0.204534            5.56564
    247       0.00000           0.206382            5.61595
    248       0.00000           0.206420            5.61699
    249       0.00000           0.207911            5.65753
    250       0.00000           0.212155            5.77304
    251       0.00000           0.217099            5.90758
    252       0.00000           0.220473            5.99938
    253       0.00000           0.222405            6.05194
    254       0.00000           0.223516            6.08219
    255       0.00000           0.224543            6.11013
    256       0.00000           0.224558            6.11055
    257       0.00000           0.226135            6.15345
    258       0.00000           0.227858            6.20034
    259       0.00000           0.228742            6.22440
    260       0.00000           0.228982            6.23091
    261       0.00000           0.229705            6.25058
    262       0.00000           0.230680            6.27712
    263       0.00000           0.231296            6.29388
    264       0.00000           0.232816            6.33526
    265       0.00000           0.234723            6.38714
    266       0.00000           0.236398            6.43271
    267       0.00000           0.237188            6.45420
    268       0.00000           0.237889            6.47329
    269       0.00000           0.239943            6.52919
    270       0.00000           0.241479            6.57096
    271       0.00000           0.247404            6.73222
    272       0.00000           0.247430            6.73290
    273       0.00000           0.247967            6.74752
    274       0.00000           0.249029            6.77643
    275       0.00000           0.250011            6.80314
    276       0.00000           0.251790            6.85156
    277       0.00000           0.252838            6.88006
    278       0.00000           0.255920            6.96393
    279       0.00000           0.256887            6.99025
    280       0.00000           0.257232            6.99964
    281       0.00000           0.260459            7.08746
    282       0.00000           0.262915            7.15429
    283       0.00000           0.267407            7.27652
    284       0.00000           0.268270            7.30000
    285       0.00000           0.271693            7.39314
    286       0.00000           0.272952            7.42742
    287       0.00000           0.273187            7.43380
    288       0.00000           0.275907            7.50782
    289       0.00000           0.281933            7.67178
    290       0.00000           0.282234            7.67998
    291       0.00000           0.287599            7.82598
    292       0.00000           0.287617            7.82645
    293       0.00000           0.289953            7.89001
    294       0.00000           0.292253            7.95261
    295       0.00000           0.292919            7.97072
    296       0.00000           0.293572            7.98851
    297       0.00000           0.296512            8.06849
    298       0.00000           0.297278            8.08936
    299       0.00000           0.300573            8.17900
    300       0.00000           0.301323            8.19942
    301       0.00000           0.306721            8.34630
    302       0.00000           0.306786            8.34808
    303       0.00000           0.310100            8.43826
    304       0.00000           0.312690            8.50872
    305       0.00000           0.319515            8.69446
    306       0.00000           0.323621            8.80617
    307       0.00000           0.323655            8.80711
    308       0.00000           0.326126            8.87435
    309       0.00000           0.329383            8.96296
    310       0.00000           0.332016            9.03463
    311       0.00000           0.333074            9.06340
    312       0.00000           0.333761            9.08211
    313       0.00000           0.334098            9.09128
    314       0.00000           0.341215            9.28493
    315       0.00000           0.342235            9.31269
    316       0.00000           0.343540            9.34821
    317       0.00000           0.344768            9.38163
    318       0.00000           0.349778            9.51794
    319       0.00000           0.351328            9.56013
    320       0.00000           0.355925            9.68521
    321       0.00000           0.356106            9.69014
    322       0.00000           0.360715            9.81555
    323       0.00000           0.360851            9.81925
    324       0.00000           0.362788            9.87196
    325       0.00000           0.365869            9.95579
    326       0.00000           0.368038           10.01483
    327       0.00000           0.370304           10.07649
    328       0.00000           0.374117           10.18024
    329       0.00000           0.378843           10.30885
    330       0.00000           0.378865           10.30943
    331       0.00000           0.383595           10.43815
    332       0.00000           0.386140           10.50741
    333       0.00000           0.390559           10.62765
    334       0.00000           0.393520           10.70823
    335       0.00000           0.395569           10.76398
    336       0.00000           0.397290           10.81080

  Highest occupied state (VBM) at     -4.27593001 eV
  | Occupation number:      2.00000000

  Lowest unoccupied state (CBM) at    -3.14697396 eV
  | Occupation number:      0.00000000

  Overall HOMO-LUMO gap:      1.12895605 eV.

  Total energy components:
  | Sum of eigenvalues            :       -1006.75586506 Ha      -27395.22094175 eV
  | XC energy correction          :        -259.41230254 Ha       -7058.96790856 eV
  | XC potential correction       :         333.26074198 Ha        9068.48618888 eV
  | Free-atom electrostatic energy:        -770.06890853 Ha      -20954.64116139 eV
  | Hartree energy correction     :         -67.21265178 Ha       -1828.94931094 eV
  | Entropy correction            :           0.00000000 Ha           0.00000000 eV
  | ---------------------------
  | Total energy                  :       -1770.18898593 Ha      -48169.29313376 eV
  | Total energy, T -> 0          :       -1770.18898593 Ha      -48169.29313376 eV  <-- do not rely on this value for anything but (periodic) metals
  | Electronic free energy        :       -1770.18898593 Ha      -48169.29313376 eV

  Derived energy quantities:
  | Kinetic energy                :        1766.82883450 Ha       48077.85876140 eV
  | Electrostatic energy          :       -3277.60551789 Ha      -89188.18398660 eV
  | Energy correction for multipole
  | error in Hartree potential    :          -0.21250358 Ha          -5.78251662 eV
  | Sum of eigenvalues per atom                           :        -360.46343344 eV
  | Total energy (T->0) per atom                          :        -633.80648860 eV  <-- do not rely on this value for anything but (periodic) metals
  | Electronic free energy per atom                       :        -633.80648860 eV
  End evaluation of scaled ZORA corrections.
  | Time for scaled ZORA corrections           :       10.310 s          10.311 s
------------------------------------------------------------

  Energy and forces in a compact form:
  | Total energy uncorrected      :         -0.481692931337610E+05 eV
  | Total energy corrected        :         -0.481692931337610E+05 eV  <-- do not rely on this value for anything but (periodic) metals
  | Electronic free energy        :         -0.481692931337610E+05 eV

  ------------------------------------ 
  Start decomposition of the XC Energy 
  ------------------------------------ 
  X and C from original XC functional choice 
  Hartree-Fock Energy :          0.000000000 Ha              0.000000000 eV
  X Energy            :       -249.155818381 Ha          -6779.874774374 eV
  C Energy            :        -10.256484163 Ha           -279.093134188 eV
  Total XC Energy     :       -259.412302544 Ha          -7058.967908561 eV
  ------------------------------------ 
  LDA X and C from self-consistent density 
  X Energy LDA        :       -225.688149264 Ha          -6141.287006713 eV
  C Energy LDA        :        -19.740769061 Ha           -537.173657245 eV
  ------------------------------------ 
  End decomposition of the XC Energy 
  ------------------------------------ 

------------------------------------------------------------

------------------------------------------------------------------------------
  Final output of selected total energy values:

  The following output summarizes some interesting total energy values
  at the end of a run (AFTER all relaxation, molecular dynamics, etc.).

  | Total energy of the DFT / Hartree-Fock s.c.f. calculation      :         -48169.293133761 eV
  | Final zero-broadening corrected energy (caution - metals only) :         -48169.293133761 eV
  | For reference only, the value of 1 Hartree used in FHI-aims is :             27.211384500 eV

  Before relying on these values, please be sure to understand exactly which
  total energy value is referred to by a given number. Different objects may
  all carry the same name 'total energy'. Definitions:

  Total energy of the DFT / Hartree-Fock s.c.f. calculation:
  | Note that this energy does not include ANY quantities calculated after the
  | s.c.f. cycle, in particular not ANY RPA, MP2, etc. many-body perturbation terms.
  | Scalar relativistic effects have been included in the 'scaled ZORA' approximation.

  Final zero-broadening corrected energy:
  | For metallic systems only, a broadening of the occupation numbers at the Fermi
  | level can be extrapolated back to zero broadening by an electron-gas inspired
  | formula. For all systems that are not real metals, this value can be
  | meaningless and should be avoided.

------------------------------------------------------------------------------
  Methods described in the following list of references were used in this FHI-aims run.
  If you publish the results, please make sure to cite these reference if they apply.
  FHI-aims is an academic code, and for our developers (often, Ph.D. students
  and postdocs), scientific credit in the community is essential.
  Thank you for helping us!

  For any use of FHI-aims, please cite:

    Volker Blum, Ralf Gehrke, Felix Hanke, Paula Havu, Ville Havu,
    Xinguo Ren, Karsten Reuter, and Matthias Scheffler
    'Ab initio molecular simulations with numeric atom-centered orbitals'
    Computer Physics Communications 180, 2175-2196 (2009)
    http://dx.doi.org/10.1016/j.cpc.2009.06.022


  The scalable eigensolver library ELPA was used in your run.
  ELPA is essential especially for large systems on hundreds or thousands of CPUs.
  For ELPA, please cite:

    Andreas Marek, Volker Blum, Rainer Johanni, Ville Havu, Bruno Lang,
    Thomas Auckenthaler, Alexander Heinecke, Hans-Joachim Bungartz, and Hermann Lederer,
    'The ELPA Library - Scalable Parallel Eigenvalue Solutions
    for Electronic Structure Theory and Computational Science'
    The Journal of Physics: Condensed Matter 26, 213201 (2014).
    http://dx.doi.org/10.1088/0953-8984/26/21/213201


  The ELSI infrastructure was used in your run to solve the Kohn-Sham electronic structure.
  Please check out http://elsi-interchange.org to learn more.
  If scalability is important for your project, please acknowledge ELSI by citing:

    V. W-z. Yu, F. Corsetti, A. Garcia, W. P. Huhn, M. Jacquelin, W. Jia,
    B. Lange, L. Lin, J. Lu, W. Mi, A. Seifitokaldani, A. Vazquez-Mayagoitia,
    C. Yang, H. Yang, and V. Blum
    'ELSI: A unified software interface for Kohn-Sham electronic structure solvers'
    Computer Physics Communications 222, 267-285 (2018).
    http://dx.doi.org/10.1016/j.cpc.2017.09.007


  For the real-space grid partitioning and parallelization used in this calculation, please cite:

    Ville Havu, Volker Blum, Paula Havu, and Matthias Scheffler,
    'Efficient O(N) integration for all-electron electronic structure calculation'
    'using numerically tabulated basis functions'
    Journal of Computational Physics 228, 8367-8379 (2009).
    http://dx.doi.org/10.1016/j.jcp.2009.08.008

  Of course, there are many other important community references, e.g., those cited in the
  above references. Our list is limited to references that describe implementations in the
  FHI-aims code. The reason is purely practical (length of this list) - please credit others as well.

------------------------------------------------------------
          Leaving FHI-aims.
          Date     :  20210620, Time     :  175423.713

          Computational steps:
          | Number of self-consistency cycles          :           17
          | Number of SCF (re)initializations          :            1

          Detailed time accounting                     :  max(cpu_time)    wall_clock(cpu1)
          | Total time                                 :      196.836 s         197.047 s
          | Preparation time                           :        0.198 s           0.210 s
          | Boundary condition initalization           :        0.001 s           0.004 s
          | Grid partitioning                          :        1.428 s           1.433 s
          | Preloading free-atom quantities on grid    :        0.013 s           0.016 s
          | Free-atom superposition energy             :        0.134 s           0.135 s
          | Total time for integrations                :      107.472 s         107.487 s
          | Total time for solution of K.-S. equations :        6.713 s           6.734 s
          | Total time for density update              :       47.650 s          47.604 s
          | Total time for mixing                      :        0.218 s           0.223 s
          | Total time for Hartree multipole update    :        0.249 s           0.254 s
          | Total time for Hartree multipole sum       :       20.301 s          20.303 s
          | Total time for total energy evaluation     :        0.008 s           0.033 s
          | Total time for scaled ZORA corrections     :       10.310 s          10.311 s

          Partial memory accounting:
          | Residual value for overall tracked memory usage across tasks :     0.000000 MB (should be 0.000000 MB)
          | Peak values for overall tracked memory usage (after allocating zora_vector2):
          |   Minimum:       38.382 MB (on task 24)
          |   Maximum:       52.748 MB (on task 43)
          |   Average:       43.520 MB
          | Largest tracked array allocation (hamiltonian_shell):
          |   Minimum:        9.982 MB (on task  1)
          |   Maximum:       12.867 MB (on task 43)
          |   Average:       10.123 MB
          Note:  These values currently only include a subset of arrays which are explicitly tracked.
          The "true" memory usage will be greater.

          Have a nice day.
------------------------------------------------------------
