  MPI-parallelism will be employed.
------------------------------------------------------------
          Invoking FHI-aims ...
          Version 180607
          Git rev. (modified): 6724847 Fix JSON memory corruption in scf_solver
          Compiled on 2018/06/27 at 16:00:31 on host coe.psc.edu.

          When using FHI-aims, please cite the following reference:

          Volker Blum, Ralf Gehrke, Felix Hanke, Paula Havu,
          Ville Havu, Xinguo Ren, Karsten Reuter, and Matthias Scheffler,
          'Ab Initio Molecular Simulations with Numeric Atom-Centered Orbitals',
          Computer Physics Communications 180, 2175-2196 (2009)

          For any questions about FHI-aims, please visit the aimsclub website
          with its forums and wiki. Contributions to both the forums and the
          wiki are warmly encouraged - they are for you, and everyone is welcome there.

------------------------------------------------------------



  Date     :  20210620, Time     :  172825.765
  Time zero on CPU 1             :   0.171156000000000E+00  s.
  Internal wall clock time zero  :           393442105.765  s.

  FHI-aims created a unique identifier for this run for later identification
  aims_uuid : 2A0E2399-4D49-4ACB-AFFB-374362019B30

  Using       56 parallel tasks.
  Task        0 on host d021 reporting.
  Task        1 on host d021 reporting.
  Task        2 on host d021 reporting.
  Task        3 on host d021 reporting.
  Task        4 on host d021 reporting.
  Task        5 on host d021 reporting.
  Task        6 on host d021 reporting.
  Task        7 on host d021 reporting.
  Task        8 on host d021 reporting.
  Task        9 on host d021 reporting.
  Task       10 on host d021 reporting.
  Task       11 on host d021 reporting.
  Task       12 on host d021 reporting.
  Task       13 on host d021 reporting.
  Task       14 on host d021 reporting.
  Task       15 on host d021 reporting.
  Task       16 on host d021 reporting.
  Task       17 on host d021 reporting.
  Task       18 on host d021 reporting.
  Task       19 on host d021 reporting.
  Task       20 on host d021 reporting.
  Task       21 on host d021 reporting.
  Task       22 on host d021 reporting.
  Task       23 on host d021 reporting.
  Task       24 on host d021 reporting.
  Task       25 on host d021 reporting.
  Task       26 on host d021 reporting.
  Task       27 on host d021 reporting.
  Task       28 on host d021 reporting.
  Task       29 on host d021 reporting.
  Task       30 on host d021 reporting.
  Task       31 on host d021 reporting.
  Task       32 on host d021 reporting.
  Task       33 on host d021 reporting.
  Task       34 on host d021 reporting.
  Task       35 on host d021 reporting.
  Task       36 on host d021 reporting.
  Task       37 on host d021 reporting.
  Task       38 on host d021 reporting.
  Task       39 on host d021 reporting.
  Task       40 on host d021 reporting.
  Task       41 on host d021 reporting.
  Task       42 on host d021 reporting.
  Task       43 on host d021 reporting.
  Task       44 on host d021 reporting.
  Task       45 on host d021 reporting.
  Task       46 on host d021 reporting.
  Task       47 on host d021 reporting.
  Task       48 on host d021 reporting.
  Task       49 on host d021 reporting.
  Task       50 on host d021 reporting.
  Task       51 on host d021 reporting.
  Task       52 on host d021 reporting.
  Task       53 on host d021 reporting.
  Task       54 on host d021 reporting.
  Task       55 on host d021 reporting.

  Performing system and environment tests:
  *** Environment variable OMP_NUM_THREADS is not set
  *** For performance reasons you might want to set it to 1
  | Stacksize not measured: no C compiler
  | Checking for scalapack...
  | Testing pdtran()...
  | All pdtran() tests passed.

  Obtaining array dimensions for all initial allocations:
  
  -----------------------------------------------------------------------
  Parsing control.in (first pass over file, find array dimensions only).
  The contents of control.in will be repeated verbatim below
  unless switched off by setting 'verbatim_writeout .false.' .
  in the first line of control.in .
  -----------------------------------------------------------------------
  
  #===============================================================================
  # FHI-aims file: ./Runs/es/control.in
  # Created using the Atomic Simulation Environment (ASE)
  # Mon Jan 13 16:04:38 2020
  #===============================================================================
  xc                                 pbe
  relativistic                       zora scalar 1e-12
  occupation_type                    gaussian 0.0001
  load_balancing                     .true.
  KS_method                          scalapack_fast
  mixer                              pulay
  n_max_pulay                        5
  charge_mix_param                   0.4
  sc_accuracy_etot                   1e-6
  sc_accuracy_eev                    1e-4
  sc_accuracy_rho                    1e-6
  sc_iter_limit                      100
  prodbas_threshold                  1e-4
  basis_threshold                    1e-5
  override_illconditioning           .true.
  use_logsbt                         .true.
  spin                               none
  charge                             0
  #===============================================================================
  
  ################################################################################
  #
  #  FHI-aims code project
  # Volker Blum, Fritz Haber Institute Berlin, 2009
  #
  #  Suggested "tight" defaults for H atom (to be pasted into control.in file)
  #
  ################################################################################
    species        H
  #     global species definitions
      nucleus             1
      mass                1.00794
  #
      l_hartree           6
  #
      cut_pot             4.0  2.0  1.0
      basis_dep_cutoff    1e-4
  #
      radial_base         24 7.0
      radial_multiplier   2
      angular_grids       specified
        division   0.1930   50
        division   0.3175  110
        division   0.4293  194
        division   0.5066  302
        division   0.5626  434
  #      division   0.5922  590
  #      division   0.6227  974
  #      division   0.6868 1202
  #      outer_grid  770
        outer_grid  434
  ################################################################################
  #
  #  Definition of "minimal" basis
  #
  ################################################################################
  #     valence basis states
      valence      1  s   1.
  #     ion occupancy
      ion_occ      1  s   0.5
  ################################################################################
  #
  #  Suggested additional basis functions. For production calculations,
  #  uncomment them one after another (the most important basis functions are
  #  listed first).
  #
  #  Basis constructed for dimers: 0.5 A, 0.7 A, 1.0 A, 1.5 A, 2.5 A
  #
  ################################################################################
  #  "First tier" - improvements: -1014.90 meV to -62.69 meV
       hydro 2 s 2.1
       hydro 2 p 3.5
  #  "Second tier" - improvements: -12.89 meV to -1.83 meV
       hydro 1 s 0.85
       hydro 2 p 3.7
       hydro 2 s 1.2
       hydro 3 d 7
  #  "Third tier" - improvements: -0.25 meV to -0.12 meV
  #     hydro 4 f 11.2
  #     hydro 3 p 4.8
  #     hydro 4 d 9
  #     hydro 3 s 3.2
  ################################################################################
  #
  # For methods that use the localized form of the "resolution of identity" for
  # the two-electron Coulomb operator (RI_method LVL), particularly Hartree-Fock and
  # hybrid density functional calculations, the highest accuracy can be obtained by
  # uncommenting the line beginning with "for_aux"  below, thus adding an extra g radial
  # function to the construction of the product basis set for the expansion.
  # See Ref. New J. Phys. 17, 093020 (2015) for more information, particularly Figs. 1 and 6.
  #
  ################################################################################
  #
  # for_aux hydro 5 g 6.0
  ################################################################################
  #
  #  FHI-aims code project
  # Volker Blum, Fritz Haber Institute Berlin, 2009
  #
  #  Suggested "tight" defaults for C atom (to be pasted into control.in file)
  #
  ################################################################################
    species        C
  #     global species definitions
      nucleus             6
      mass                12.0107
  #
      l_hartree           6
  #
      cut_pot             4.0  2.0  1.0
      basis_dep_cutoff    1e-4
  #
      radial_base         34 7.0
      radial_multiplier   2
      angular_grids specified
        division   0.2187   50
        division   0.4416  110
        division   0.6335  194
        division   0.7727  302
        division   0.8772  434
  #      division   0.9334  590
  #      division   0.9924  770
  #      division   1.0230  974
  #      division   1.5020 1202
  #     outer_grid  974
        outer_grid  434
  ################################################################################
  #
  #  Definition of "minimal" basis
  #
  ################################################################################
  #     valence basis states
      valence      2  s   2.
      valence      2  p   2.
  #     ion occupancy
      ion_occ      2  s   1.
      ion_occ      2  p   1.
  ################################################################################
  #
  #  Suggested additional basis functions. For production calculations,
  #  uncomment them one after another (the most important basis functions are
  #  listed first).
  #
  #  Constructed for dimers: 1.0 A, 1.25 A, 1.5 A, 2.0 A, 3.0 A
  #
  ################################################################################
  #  "First tier" - improvements: -1214.57 meV to -155.61 meV
       hydro 2 p 1.7
       hydro 3 d 6
       hydro 2 s 4.9
  #  "Second tier" - improvements: -67.75 meV to -5.23 meV
       hydro 4 f 9.8
       hydro 3 p 5.2
       hydro 3 s 4.3
       hydro 5 g 14.4
       hydro 3 d 6.2
  #  "Third tier" - improvements: -2.43 meV to -0.60 meV
  #     hydro 2 p 5.6
  #     hydro 2 s 1.4
  #     hydro 3 d 4.9
  #     hydro 4 f 11.2
  #  "Fourth tier" - improvements: -0.39 meV to -0.18 meV
  #     hydro 2 p 2.1
  #     hydro 5 g 16.4
  #     hydro 4 d 13.2
  #     hydro 3 s 13.6
  #     hydro 4 f 17.6
  #  Further basis functions - improvements: -0.08 meV and below
  #     hydro 3 s 2
  #     hydro 3 p 6
  #     hydro 4 d 20
  ################################################################################
  #
  # For methods that use the localized form of the "resolution of identity" for
  # the two-electron Coulomb operator (RI_method LVL), particularly Hartree-Fock and
  # hybrid density functional calculations, the highest accuracy can be obtained by
  # uncommenting the line beginning with "for_aux"  below, thus adding an extra g radial
  # function to the construction of the product basis set for the expansion.
  # See Ref. New J. Phys. 17, 093020 (2015) for more information, particularly Figs. 1 and 6.
  #
  ################################################################################
  #
  # for_aux hydro 5 g 6.0
  
  -----------------------------------------------------------------------
  Completed first pass over input file control.in .
  -----------------------------------------------------------------------
  
  
  -----------------------------------------------------------------------
  Parsing geometry.in (first pass over file, find array dimensions only).
  The contents of geometry.in will be repeated verbatim below
  unless switched off by setting 'verbatim_writeout .false.' .
  in the first line of geometry.in .
  -----------------------------------------------------------------------
  
  #=======================================================
  # FHI-aims file: geometry.in
  # Created using the Atomic Simulation Environment (ASE)
  # Sun Jun 20 15:47:01 2021
  #=======================================================
  atom 21.1728169999999984 17.2004249999999992 40.7897400000000019 C
  atom 20.1698659999999990 17.6108459999999987 40.9027760000000029 H
  atom 21.7069650000000003 16.4450940000000010 41.7879790000000000 C
  atom 21.9258459999999999 17.4921889999999998 39.6179160000000010 C
  atom 21.1286349999999992 16.2388550000000009 42.6856859999999969 H
  atom 23.0313580000000009 15.9166489999999996 41.6858020000000025 C
  atom 21.4937289999999983 18.1187259999999988 38.8390040000000027 H
  atom 23.1870960000000004 17.0136339999999997 39.4829969999999975 C
  atom 23.6032510000000002 15.1176340000000007 42.6976969999999980 C
  atom 23.7789189999999984 16.1964609999999993 40.4955500000000015 C
  atom 23.7768909999999991 17.2506489999999992 38.5969710000000035 H
  atom 22.8202379999999998 14.7989619999999995 43.9312219999999982 C
  atom 24.9005699999999983 14.5882489999999994 42.5305290000000014 C
  atom 25.0442259999999983 15.6335010000000008 40.3362789999999976 C
  atom 22.1675660000000008 13.5514399999999995 44.0360310000000013 C
  atom 22.7390180000000015 15.7319849999999999 44.9812889999999967 C
  atom 25.5377210000000012 13.8003909999999994 43.5389690000000016 C
  atom 25.6244970000000016 14.8306730000000009 41.3137860000000003 C
  atom 25.5925730000000016 15.8255710000000001 39.4147139999999965 H
  atom 21.3534240000000004 13.2736839999999994 45.1874529999999979 C
  atom 22.3084009999999999 12.5329080000000008 43.0442090000000022 C
  atom 21.9355459999999987 15.4364380000000008 46.1378109999999992 C
  atom 23.4535090000000004 16.9649479999999997 44.9549639999999968 C
  atom 25.0043660000000010 13.6137730000000001 44.4685959999999980 H
  atom 26.7873300000000008 13.2910579999999996 43.3532080000000022 C
  atom 26.9332799999999999 14.2672039999999996 41.1657039999999981 C
  atom 20.7234160000000003 11.9928849999999994 45.2812380000000019 C
  atom 21.2289040000000000 14.2339079999999996 46.1884879999999995 C
  atom 21.7072299999999991 11.3225049999999996 43.1883430000000033 C
  atom 22.9270330000000016 12.7376649999999998 42.1723339999999993 H
  atom 21.9168510000000012 16.3753560000000000 47.2145340000000004 C
  atom 23.4072989999999983 17.8316499999999998 46.0050310000000025 C
  atom 24.0648209999999985 17.1915699999999987 44.0835819999999998 H
  atom 27.2464319999999987 12.6872469999999993 44.1331070000000025 H
  atom 27.4954719999999995 13.5333030000000001 42.1534130000000005 C
  atom 27.4675170000000008 14.4462659999999996 40.2326219999999992 H
  atom 20.0983459999999994 11.7830499999999994 46.1514680000000013 H
  atom 20.8922060000000016 11.0546699999999998 44.3210070000000016 C
  atom 20.5998659999999987 14.0195129999999999 47.0534529999999975 H
  atom 21.8425970000000014 10.5532609999999991 42.4309849999999997 H
  atom 21.3229989999999994 16.1404600000000009 48.0999010000000027 H
  atom 22.6376029999999986 17.5225429999999989 47.1577690000000018 C
  atom 23.9597909999999992 18.7698269999999994 45.9670229999999975 H
  atom 28.4913680000000014 13.1106010000000008 42.0301749999999998 H
  atom 20.4042670000000008 10.0863650000000007 44.4108439999999973 H
  atom 22.6271969999999989 18.2208059999999996 47.9913069999999991 H
  
  -----------------------------------------------------------------------
  Completed first pass over input file geometry.in .
  -----------------------------------------------------------------------
  

  Basic array size parameters:
  | Number of species                 :        2
  | Number of atoms                   :       46
  | Max. basis fn. angular momentum   :        4
  | Max. atomic/ionic basis occupied n:        2
  | Max. number of basis fn. types    :        2
  | Max. radial fns per species/type  :        8
  | Max. logarithmic grid size        :     1277
  | Max. radial integration grid size :       69
  | Max. angular integration grid size:      434
  | Max. angular grid division number :        8
  | Radial grid for Hartree potential :     1277
  | Number of spin channels           :        1

------------------------------------------------------------
          Reading file control.in.
------------------------------------------------------------
  XC: Using PBE gradient-corrected functionals.
  Scalar relativistic treatment of kinetic energy: ZORA.
  Threshold value for ZORA:   0.100000E-11
  Occupation type: Gaussian broadening, width =   0.100000E-03 eV.
  Since 'load_balancing .true.' is present in control.in, automatically turning on 'use_local_index .true.'.
  Using load balancing for integrations.
  Kohn-Sham electronic structure solved by the ELSI library.
  Using pulay charge density mixing.
  Pulay mixing - number of memorized iterations:    5
  Charge density mixing - mixing parameter:     0.4000
  Convergence accuracy of total energy:  0.1000E-05
  Convergence accuracy of sum of eigenvalues:  0.1000E-03
  Convergence accuracy of self-consistent charge density:  0.1000E-05
  Maximum number of s.-c. iterations  :   100
  * Ignoring prodbas_threshold
  Threshold for basis singularities:  0.1000E-04
  override_illconditioning: Explicitly overriding any built-in checks for an ill-conditioned overlap matrix.
  *** WARNING: If you use this flag, you should really know what you are doing.
  *** DO NOT keep this flag set by default in all your control.in files.
  Using 1D integrations for auxiliary 2-center integrals.
  Spin treatment: No spin polarisation.
  Charge =   0.000000E+00: Neutral system requested explicitly.
 
  Reading configuration options for species H                   .
  | Found nuclear charge :   1.0000
  | Found atomic mass :    1.00794000000000      amu
  | Found l_max for Hartree potential  :   6
  | Found cutoff potl. onset [A], width [A], scale factor :    4.00000    2.00000    1.00000
  | Threshold for basis-dependent cutoff potential is   0.100000E-03
  | Found data for basic radial integration grid :    24 points, outermost radius =    7.000 A
  | Found multiplier for basic radial grid :   2
  | Found angular grid specification: user-specified.
  | Specified grid contains     6 separate shells.
  | Check grid settings after all constraints further below.
  | Found free-atom valence shell :  1 s   1.000
  | No ionic wave fns used. Skipping ion_occ.
  | Found hydrogenic basis function :  2 s   2.100
  | Found hydrogenic basis function :  2 p   3.500
  | Found hydrogenic basis function :  1 s   0.850
  | Found hydrogenic basis function :  2 p   3.700
  | Found hydrogenic basis function :  2 s   1.200
  | Found hydrogenic basis function :  3 d   7.000
  Species H                   : Missing cutoff potential type.
  Defaulting to exp(1/x)/(1-x)^2 type cutoff potential.
  Species H : No 'logarithmic' tag. Using default grid for free atom:
  | Default logarithmic grid data [bohr] : 0.1000E-03 0.1000E+03 0.1012E+01
  Species H : On-site basis accuracy parameter (for Gram-Schmidt orthonormalisation) not specified.
  Using default value basis_acc =  0.1000000E-03.
  Species H                   : Using default innermost maximum threshold i_radial=  2 for radial functions.
  Species H                   : Default cutoff onset for free atom density etc. : 0.40000000E+01 AA.
  Species H                   : Basic radial grid will be enhanced according to radial_multiplier =   2, to contain    49 grid points.
 
  Reading configuration options for species C                   .
  | Found nuclear charge :   6.0000
  | Found atomic mass :    12.0107000000000      amu
  | Found l_max for Hartree potential  :   6
  | Found cutoff potl. onset [A], width [A], scale factor :    4.00000    2.00000    1.00000
  | Threshold for basis-dependent cutoff potential is   0.100000E-03
  | Found data for basic radial integration grid :    34 points, outermost radius =    7.000 A
  | Found multiplier for basic radial grid :   2
  | Found angular grid specification: user-specified.
  | Specified grid contains     6 separate shells.
  | Check grid settings after all constraints further below.
  | Found free-atom valence shell :  2 s   2.000
  | Found free-atom valence shell :  2 p   2.000
  | No ionic wave fns used. Skipping ion_occ.
  | No ionic wave fns used. Skipping ion_occ.
  | Found hydrogenic basis function :  2 p   1.700
  | Found hydrogenic basis function :  3 d   6.000
  | Found hydrogenic basis function :  2 s   4.900
  | Found hydrogenic basis function :  4 f   9.800
  | Found hydrogenic basis function :  3 p   5.200
  | Found hydrogenic basis function :  3 s   4.300
  | Found hydrogenic basis function :  5 g  14.400
  | Found hydrogenic basis function :  3 d   6.200
  Species C                   : Missing cutoff potential type.
  Defaulting to exp(1/x)/(1-x)^2 type cutoff potential.
  Species C : No 'logarithmic' tag. Using default grid for free atom:
  | Default logarithmic grid data [bohr] : 0.1000E-03 0.1000E+03 0.1012E+01
  Species C : On-site basis accuracy parameter (for Gram-Schmidt orthonormalisation) not specified.
  Using default value basis_acc =  0.1000000E-03.
  Species C                   : Using default innermost maximum threshold i_radial=  2 for radial functions.
  Species C                   : Default cutoff onset for free atom density etc. : 0.40000000E+01 AA.
  Species C                   : Basic radial grid will be enhanced according to radial_multiplier =   2, to contain    69 grid points.
 
  Finished reading input file 'control.in'. Consistency checks are next.
 
  MPI_IN_PLACE appears to work with this MPI implementation.
  | Keeping use_mpi_in_place .true. (see manual).
  Target number of points in a grid batch is not set. Defaulting to  100
  Method for grid partitioning is not set. Defaulting to parallel hash+maxmin partitioning.
  Batch size limit is not set. Defaulting to    200
  By default, will store active basis functions for each batch.
  If in need of memory, prune_basis_once .false. can be used to disable this option.
  communication_type for Hartree potential was not specified.
  Defaulting to calc_hartree .
  Pulay mixer: Number of initial linear mixing iterations not set.
  Defaulting to    0 iterations.
  Work space size for distributed Hartree potential not set.
  Defaulting to   0.200000E+03 MB.
  Algorithm-dependent basis array size parameters:
  | n_max_pulay                         :        5
  Presetting      1001 iterations before the initial mixing cycle
  is restarted anyway using the sc_init_iter criterion / keyword.
  Presetting a factor      1.000 between actual scf density residual
  and density convergence criterion sc_accuracy_rho below which sc_init_iter
  takes no effect.
  Calculation of forces was not defined in control.in. No forces will be calculated.
  Geometry relaxation not requested: no relaxation will be performed.
  No accuracy limit for integral partition fn. given. Defaulting to  0.1000E-14.
  No threshold value for u(r) in integrations given. Defaulting to  0.1000E-05.
  No accuracy for occupation numbers given. Defaulting to  0.1000E-12.
  No threshold value for occupation numbers given. Defaulting to  0.0000E+00.
  No accuracy for fermi level given. Defaulting to  0.1000E-19.
  Maximum # of iterations to find E_F not set. Defaulting to  200.
  Will not use alltoall communication since running on < 1024 CPUs.
  partition_type (choice of integration weights) for integrals was not specified.
  | Using a version of the partition function of Stratmann and coworkers ('stratmann_sparse').
  | At each grid point, the set of atoms used to build the partition table is smoothly restricted to
  | only those atoms whose free-atom density would be non-zero at that grid point.
  Partitioning for Hartree potential was not defined. Using partition_type for integrals.
  | Adjusted default value of keyword multip_moments_threshold to:       0.10000000E-11
  | This value may affect high angular momentum components of the Hartree potential in periodic systems.
  No q(lm)/r^(l+1) cutoff set for long-range Hartree potential.
  | Using default value of  0.100000E-09 .
  | Verify using the multipole_threshold keyword.
  Defaulting to new monopole extrapolation.
  Density update method: automatic selection selected.
 * Warning: use_local_index and/or load_balancing needs packed_matrix_format = index
 * Changing the default setting to packed_matrix_format = index
------------------------------------------------------------


------------------------------------------------------------
          Reading geometry description geometry.in.
------------------------------------------------------------
  Input structure read successfully.
  The structure contains       46 atoms,  and a total of        186.000 electrons.

  Input geometry:
  | No unit cell requested.
  | Atomic structure:
  |       Atom                x [A]            y [A]            z [A]
  |    1: Species C            21.17281700       17.20042500       40.78974000
  |    2: Species H            20.16986600       17.61084600       40.90277600
  |    3: Species C            21.70696500       16.44509400       41.78797900
  |    4: Species C            21.92584600       17.49218900       39.61791600
  |    5: Species H            21.12863500       16.23885500       42.68568600
  |    6: Species C            23.03135800       15.91664900       41.68580200
  |    7: Species H            21.49372900       18.11872600       38.83900400
  |    8: Species C            23.18709600       17.01363400       39.48299700
  |    9: Species C            23.60325100       15.11763400       42.69769700
  |   10: Species C            23.77891900       16.19646100       40.49555000
  |   11: Species H            23.77689100       17.25064900       38.59697100
  |   12: Species C            22.82023800       14.79896200       43.93122200
  |   13: Species C            24.90057000       14.58824900       42.53052900
  |   14: Species C            25.04422600       15.63350100       40.33627900
  |   15: Species C            22.16756600       13.55144000       44.03603100
  |   16: Species C            22.73901800       15.73198500       44.98128900
  |   17: Species C            25.53772100       13.80039100       43.53896900
  |   18: Species C            25.62449700       14.83067300       41.31378600
  |   19: Species H            25.59257300       15.82557100       39.41471400
  |   20: Species C            21.35342400       13.27368400       45.18745300
  |   21: Species C            22.30840100       12.53290800       43.04420900
  |   22: Species C            21.93554600       15.43643800       46.13781100
  |   23: Species C            23.45350900       16.96494800       44.95496400
  |   24: Species H            25.00436600       13.61377300       44.46859600
  |   25: Species C            26.78733000       13.29105800       43.35320800
  |   26: Species C            26.93328000       14.26720400       41.16570400
  |   27: Species C            20.72341600       11.99288500       45.28123800
  |   28: Species C            21.22890400       14.23390800       46.18848800
  |   29: Species C            21.70723000       11.32250500       43.18834300
  |   30: Species H            22.92703300       12.73766500       42.17233400
  |   31: Species C            21.91685100       16.37535600       47.21453400
  |   32: Species C            23.40729900       17.83165000       46.00503100
  |   33: Species H            24.06482100       17.19157000       44.08358200
  |   34: Species H            27.24643200       12.68724700       44.13310700
  |   35: Species C            27.49547200       13.53330300       42.15341300
  |   36: Species H            27.46751700       14.44626600       40.23262200
  |   37: Species H            20.09834600       11.78305000       46.15146800
  |   38: Species C            20.89220600       11.05467000       44.32100700
  |   39: Species H            20.59986600       14.01951300       47.05345300
  |   40: Species H            21.84259700       10.55326100       42.43098500
  |   41: Species H            21.32299900       16.14046000       48.09990100
  |   42: Species C            22.63760300       17.52254300       47.15776900
  |   43: Species H            23.95979100       18.76982700       45.96702300
  |   44: Species H            28.49136800       13.11060100       42.03017500
  |   45: Species H            20.40426700       10.08636500       44.41084400
  |   46: Species H            22.62719700       18.22080600       47.99130700
  |

  | The smallest distance between any two atoms is         1.08741211 AA.
  |
  | The first atom of this pair is atom number                     42 .
  | The second atom of this pair is atom number                    46 .

  Number of empty states per atom not set in control.in - providing a guess from actual geometry.
  | Total number of empty states used during s.c.f. cycle:      111
  If you use a very high smearing, use empty_states (per atom!) in control.in to increase this value.

  Structure-dependent array size parameters: 
  | Maximum number of distinct radial functions  :       18
  | Maximum number of basis functions            :     1362
  | Number of Kohn-Sham states (occupied + empty):      204
------------------------------------------------------------

------------------------------------------------------------
          Preparing all fixed parts of the calculation.
------------------------------------------------------------
  Determining machine precision:
    2.225073858507201E-308
  Setting up grids for atomic and cluster calculations.

  Creating wave function, potential, and density for free atoms.

  Species: H

  List of occupied orbitals and eigenvalues:
    n    l              occ      energy [Ha]    energy [eV]
    1    0           1.0000        -0.238386        -6.4868


  Species: C

  List of occupied orbitals and eigenvalues:
    n    l              occ      energy [Ha]    energy [eV]
    1    0           2.0000       -10.049212      -273.4530
    2    0           2.0000        -0.504761       -13.7352
    2    1           2.0000        -0.193631        -5.2690

  Creating fixed part of basis set: Ionic, confined, hydrogenic.
 
  H                    hydrogenic:
 
  List of hydrogenic basis orbitals: 
    n    l      effective z      eigenvalue [eV]  inner max. [A]     outer max. [A]     outer radius [A]   
    2    0         2.100000       -14.9965           0.193243           1.317208           5.373006
    2    1         3.500000       -41.6672           0.602369           0.602369           4.056063
    1    0         0.850000        -9.8292           0.624871           0.624871           5.373006
    2    1         3.700000       -46.5653           0.573622           0.573622           3.910002
    2    0         1.200000        -4.5995           0.334980           2.228188           5.505995
    3    2         7.000000       -74.0753           0.680699           0.680699           3.769201
 
 
  C                    hydrogenic:
 
  List of hydrogenic basis orbitals: 
    n    l      effective z      eigenvalue [eV]  inner max. [A]     outer max. [A]     outer radius [A]   
    2    1         1.700000        -9.8152           1.245706           1.245706           5.401630
    3    2         6.000000       -54.4226           0.792453           0.792453           4.178599
    2    0         4.900000       -81.6681           0.082559           0.562749           3.353238
    4    3         9.800000       -81.6681           0.863254           0.863254           4.028125
    3    1         5.200000       -40.8774           0.305389           1.215618           4.898362
    3    0         4.300000       -27.9508           0.091041           1.610311           5.401630
    5    4        14.400000      -112.8510           0.917666           0.917666           3.883070
    3    2         6.200000       -58.1113           0.763917           0.763917           4.077671
 

  Adding cutoff potential to free-atom effective potential.
  Creating atomic-like basis functions for current effective potential.

  Species H                   :

  List of atomic basis orbitals and eigenvalues:
    n    l      energy [Ha]    energy [eV]    outer radius [A]
    1    0        -0.238386        -6.4868       5.373006


  Species C                   :

  List of atomic basis orbitals and eigenvalues:
    n    l      energy [Ha]    energy [eV]    outer radius [A]
    1    0       -10.049212      -273.4530       1.934409
    2    0        -0.504761       -13.7352       5.271162
    2    1        -0.193631        -5.2690       5.401630

  Assembling full basis from fixed parts.
  | Species H :   atomic orbital   1 s accepted.
  | Species H :    hydro orbital   2 s accepted.
  | Species H :    hydro orbital   1 s accepted.
  | Species H :    hydro orbital   2 s accepted.
  | Species H :    hydro orbital   2 p accepted.
  | Species H :    hydro orbital   2 p accepted.
  | Species H :    hydro orbital   3 d accepted.
  | Species C :   atomic orbital   1 s accepted.
  | Species C :    hydro orbital   2 s accepted.
  | Species C :   atomic orbital   2 s accepted.
  | Species C :    hydro orbital   3 s accepted.
  | Species C :    hydro orbital   3 p accepted.
  | Species C :   atomic orbital   2 p accepted.
  | Species C :    hydro orbital   2 p accepted.
  | Species C :    hydro orbital   3 d accepted.
  | Species C :    hydro orbital   3 d accepted.
  | Species C :    hydro orbital   4 f accepted.
  | Species C :    hydro orbital   5 g accepted.
 
  Basis size parameters after reduction:
  | Total number of radial functions:       18
  | Total number of basis functions :     1362
 
  Per-task memory consumption for arrays in subroutine allocate_ext:
  |           4.445376MB.
  Testing on-site integration grid accuracy.
  |  Species  Function  <phi|h_atom|phi> (log., in eV)  <phi|h_atom|phi> (rad., in eV)
           1        1                 -6.4870767962                 -6.4871688290
           1        2                 13.5032046589                 13.5028982997
           1        3                 32.8195184817                 32.8119941656
           1        4                 33.8513856511                 33.7670005767 ***
           1        5                 28.8544614965                 28.8544615203
           1        6                 59.6326952547                 59.6327656460
           1        7                 60.2719308513                 60.2719305949
           2        8               -273.4529726040               -273.4529710464
           2        9                -10.7721037319                -10.7721022101
           2       10                 17.6044132601                 17.6044162063
           2       11                 53.7706460658                 53.7706913770
           2       12                 15.0973290362                 15.0973256030
           2       13                  3.8545134692                  3.8545724687
           2       14                 12.1156992592                 12.1182024431
           2       15                 29.4352039302                 29.4352041816
           2       16                 54.8741144708                 54.8740268729
           2       17                 59.3556032049                 59.3556031382
           2       18                 93.4551837154                 93.4551838009
 * Note: Onsite integrals marked "***" above are less accurate than
 * onsite_accuracy_threshold =    0.03000 eV. Usually, this is harmless.
 * When in doubt, tighten the "radial" and/or "radial_multiplier" flags to check.

  Preparing densities etc. for the partition functions (integrals / Hartree potential).

  Preparations completed.
  max(cpu_time)          :      0.191 s.
  Wall clock time (cpu1) :      0.196 s.
------------------------------------------------------------

------------------------------------------------------------
          Begin self-consistency loop: Initialization.

          Date     :  20210620, Time     :  172826.138
------------------------------------------------------------

  Initializing index lists of integration centers etc. from given atomic structure:
  | Number of centers in hartree potential         :        46
  | Number of centers in hartree multipole         :        46
  | Number of centers in electron density summation:        46
  | Number of centers in basis integrals           :        46
  | Number of centers in integrals                 :        46
  | Number of centers in hamiltonian               :        46
  * Using 56 tasks for Scalapack Eigenvalue solver.
  Detailed listing of tasks and assigned k-points:
  (for non-periodic systems, the "k-point" denotes an internal label only)
   Task     0 k-point     1 on d021
   Task     1 k-point     1 on d021
   Task     2 k-point     1 on d021
   Task     3 k-point     1 on d021
   Task     4 k-point     1 on d021
   Task     5 k-point     1 on d021
   Task     6 k-point     1 on d021
   Task     7 k-point     1 on d021
   Task     8 k-point     1 on d021
   Task     9 k-point     1 on d021
   Task    10 k-point     1 on d021
   Task    11 k-point     1 on d021
   Task    12 k-point     1 on d021
   Task    13 k-point     1 on d021
   Task    14 k-point     1 on d021
   Task    15 k-point     1 on d021
   Task    16 k-point     1 on d021
   Task    17 k-point     1 on d021
   Task    18 k-point     1 on d021
   Task    19 k-point     1 on d021
   Task    20 k-point     1 on d021
   Task    21 k-point     1 on d021
   Task    22 k-point     1 on d021
   Task    23 k-point     1 on d021
   Task    24 k-point     1 on d021
   Task    25 k-point     1 on d021
   Task    26 k-point     1 on d021
   Task    27 k-point     1 on d021
   Task    28 k-point     1 on d021
   Task    29 k-point     1 on d021
   Task    30 k-point     1 on d021
   Task    31 k-point     1 on d021
   Task    32 k-point     1 on d021
   Task    33 k-point     1 on d021
   Task    34 k-point     1 on d021
   Task    35 k-point     1 on d021
   Task    36 k-point     1 on d021
   Task    37 k-point     1 on d021
   Task    38 k-point     1 on d021
   Task    39 k-point     1 on d021
   Task    40 k-point     1 on d021
   Task    41 k-point     1 on d021
   Task    42 k-point     1 on d021
   Task    43 k-point     1 on d021
   Task    44 k-point     1 on d021
   Task    45 k-point     1 on d021
   Task    46 k-point     1 on d021
   Task    47 k-point     1 on d021
   Task    48 k-point     1 on d021
   Task    49 k-point     1 on d021
   Task    50 k-point     1 on d021
   Task    51 k-point     1 on d021
   Task    52 k-point     1 on d021
   Task    53 k-point     1 on d021
   Task    54 k-point     1 on d021
   Task    55 k-point     1 on d021
  Tasks:    56 split into      8 X      7 BLACS grid
  Calculating block size based on n_basis =         1362 max_nprow =            8 max_npcol =            7
  ScaLAPACK block size set to:           16
  Allocating        0.293 MB for ovlp
  Allocating        0.293 MB for ham
  Allocating        0.293 MB for eigenvec
  Required Scalapack workspace - INTEGER:            1 REAL:             1
  Partitioning the integration grid into batches with parallel hashing+maxmin method.
  | Number of batches:     6792
  | Maximal batch size:     200
  | Minimal batch size:       6
  | Average batch size:     112.822
  | Standard deviation of batch sizes:      36.790

  Integration load balanced across     56 MPI tasks.
  Work distribution over tasks is as follows:
  Task      0 has      13764 integration points.
  Task      1 has      13695 integration points.
  Task      2 has      13681 integration points.
  Task      3 has      13723 integration points.
  Task      4 has      13671 integration points.
  Task      5 has      13708 integration points.
  Task      6 has      13616 integration points.
  Task      7 has      13738 integration points.
  Task      8 has      13854 integration points.
  Task      9 has      13535 integration points.
  Task     10 has      13827 integration points.
  Task     11 has      13525 integration points.
  Task     12 has      13811 integration points.
  Task     13 has      13528 integration points.
  Task     14 has      13813 integration points.
  Task     15 has      13747 integration points.
  Task     16 has      13650 integration points.
  Task     17 has      13906 integration points.
  Task     18 has      13604 integration points.
  Task     19 has      13696 integration points.
  Task     20 has      13524 integration points.
  Task     21 has      13694 integration points.
  Task     22 has      13817 integration points.
  Task     23 has      13528 integration points.
  Task     24 has      13681 integration points.
  Task     25 has      13660 integration points.
  Task     26 has      13634 integration points.
  Task     27 has      13569 integration points.
  Task     28 has      13719 integration points.
  Task     29 has      13789 integration points.
  Task     30 has      13591 integration points.
  Task     31 has      13825 integration points.
  Task     32 has      13637 integration points.
  Task     33 has      13765 integration points.
  Task     34 has      13560 integration points.
  Task     35 has      13745 integration points.
  Task     36 has      13746 integration points.
  Task     37 has      13538 integration points.
  Task     38 has      13758 integration points.
  Task     39 has      13640 integration points.
  Task     40 has      13772 integration points.
  Task     41 has      13501 integration points.
  Task     42 has      13701 integration points.
  Task     43 has      13785 integration points.
  Task     44 has      13608 integration points.
  Task     45 has      13784 integration points.
  Task     46 has      13595 integration points.
  Task     47 has      13752 integration points.
  Task     48 has      13540 integration points.
  Task     49 has      13727 integration points.
  Task     50 has      13691 integration points.
  Task     51 has      13627 integration points.
  Task     52 has      13792 integration points.
  Task     53 has      13643 integration points.
  Task     54 has      13729 integration points.
  Task     55 has      13525 integration points.
  Initializing partition tables, free-atom densities, potentials, etc. across the integration grid (initialize_grid_storage).
  | initialize_grid_storage: Actual outermost partition radius vs. multipole_radius_free
  | (-- VB: in principle, multipole_radius_free should be larger, hence this output)
  | Species        1: Confinement radius =              6.000000000000000 AA, multipole_radius_free =              6.071692442739658 AA.
  | Species        1: outer_partition_radius set to              6.071692442739658 AA .
  | Species        2: Confinement radius =              6.000000000000000 AA, multipole_radius_free =              6.029870734432609 AA.
  | Species        2: outer_partition_radius set to              6.029870734432609 AA .
  | The sparse table of interatomic distances needs     25.0280 kbyte instead of    16.9280 kbyte of memory.
  | Using the partition_type stratmann_smoother will reduce your memory usage.
  | Net number of integration points:   766284
  | of which are non-zero points    :   609527
  Renormalizing the initial density to the exact electron count on the 3D integration grid.
  | Initial density: Formal number of electrons (from input files) :     186.0000000000
  | Integrated number of electrons on 3D grid     :     185.9997665755
  | Charge integration error                      :      -0.0002334245
  | Normalization factor for density and gradient :       1.0000012550
  Obtaining max. number of non-zero basis functions in each batch (get_n_compute_maxes).
  | Maximal number of non-zero basis functions:     1064
  Selecting the method for density update.
  Loop over occupied states selected for charge density update.
  Hamiltonian matrix size:
  | Size of matrix non-packed:                928203
  | Size of matrix packed:          899839
  Allocating        2.223 MB for KS_eigenvector
  use_local_index: Max. local matrix size =       826070
  Task:     0 matrix size:     182029
  Task:     1 matrix size:     403401
  Task:     2 matrix size:     552764
  Task:     3 matrix size:     443235
  Task:     4 matrix size:     680229
  Task:     5 matrix size:     704157
  Task:     6 matrix size:     826070
  Task:     7 matrix size:     101025
  Task:     8 matrix size:     210257
  Task:     9 matrix size:     141246
  Task:    10 matrix size:     456839
  Task:    11 matrix size:     330138
  Task:    12 matrix size:     610148
  Task:    13 matrix size:     528086
  Task:    14 matrix size:     583997
  Task:    15 matrix size:     571044
  Task:    16 matrix size:     718677
  Task:    17 matrix size:     179066
  Task:    18 matrix size:     228801
  Task:    19 matrix size:     213531
  Task:    20 matrix size:     293761
  Task:    21 matrix size:     317353
  Task:    22 matrix size:     308297
  Task:    23 matrix size:     224659
  Task:    24 matrix size:     703983
  Task:    25 matrix size:     612864
  Task:    26 matrix size:     548201
  Task:    27 matrix size:     375735
  Task:    28 matrix size:      97020
  Task:    29 matrix size:     422763
  Task:    30 matrix size:     529654
  Task:    31 matrix size:     231472
  Task:    32 matrix size:     208292
  Task:    33 matrix size:     349998
  Task:    34 matrix size:     428372
  Task:    35 matrix size:     706610
  Task:    36 matrix size:     647951
  Task:    37 matrix size:     494876
  Task:    38 matrix size:     506452
  Task:    39 matrix size:     630926
  Task:    40 matrix size:     672194
  Task:    41 matrix size:     566983
  Task:    42 matrix size:     683743
  Task:    43 matrix size:     536663
  Task:    44 matrix size:     638499
  Task:    45 matrix size:     270062
  Task:    46 matrix size:     322501
  Task:    47 matrix size:     200658
  Task:    48 matrix size:     106030
  Task:    49 matrix size:     819928
  Task:    50 matrix size:     651346
  Task:    51 matrix size:     654107
  Task:    52 matrix size:     517499
  Task:    53 matrix size:     513684
  Task:    54 matrix size:     191890
  Task:    55 matrix size:     196773
  Integrating Hamiltonian matrix: batch-based integration.
  Time summed over all CPUs for integration: real work      141.095 s, elapsed      274.497 s
  Time get_set_sparse_local_matrix_scalapack:     0.016694 s
  Start compute_balanced_batch_distribution
  Done load balancing, time needed:      0.008 s
  Integrating overlap matrix with loadbalancing
  Time summed over all CPUs for integration: real work       40.344 s, elapsed       46.451 s
  Time get_set_full_local_matrix_scalapack:     0.018235 s

  Updating Kohn-Sham eigenvalues and eigenvectors using ELSI and the ELPA eigensolver.
  Overlap matrix is not singular
  | Lowest and highest eigenvalues :  0.13E+02,  0.91E-04
  Finished singularity check of overlap matrix
  | Time :     0.076 s
  Finished Cholesky decomposition
  | Time :     0.018 s
  Finished transformation to standard eigenproblem
  | Time :     0.012 s
  Starting ELPA eigensolver
  Finished solving standard eigenproblem
  | Time :     0.078 s
  Finished back-transformation of eigenvectors
  | Time :     0.004 s

  Obtaining occupation numbers and chemical potential using ELSI.
  | Chemical potential (Fermi level):    -8.25918933 eV
  Writing Kohn-Sham eigenvalues.

  State    Occupation    Eigenvalue [Ha]    Eigenvalue [eV]
      1       2.00000         -10.173465         -276.83406
      2       2.00000         -10.172642         -276.81168
      3       2.00000         -10.172289         -276.80206
      4       2.00000         -10.172014         -276.79459
      5       2.00000         -10.171735         -276.78699
      6       2.00000         -10.171599         -276.78330
      7       2.00000         -10.171054         -276.76846
      8       2.00000         -10.170988         -276.76667
      9       2.00000         -10.170972         -276.76624
     10       2.00000         -10.170855         -276.76303
     11       2.00000         -10.170758         -276.76041
     12       2.00000         -10.170678         -276.75823
     13       2.00000         -10.170662         -276.75780
     14       2.00000         -10.170470         -276.75258
     15       2.00000         -10.170224         -276.74587
     16       2.00000         -10.170215         -276.74562
     17       2.00000         -10.170174         -276.74452
     18       2.00000         -10.169573         -276.72817
     19       2.00000         -10.166511         -276.64483
     20       2.00000         -10.166009         -276.63118
     21       2.00000         -10.166003         -276.63101
     22       2.00000         -10.165586         -276.61966
     23       2.00000         -10.164526         -276.59082
     24       2.00000         -10.164186         -276.58157
     25       2.00000         -10.163781         -276.57056
     26       2.00000         -10.163651         -276.56701
     27       2.00000         -10.160307         -276.47602
     28       2.00000         -10.159896         -276.46484
     29       2.00000          -1.016552          -27.66178
     30       2.00000          -1.006146          -27.37862
     31       2.00000          -0.985905          -26.82785
     32       2.00000          -0.985344          -26.81259
     33       2.00000          -0.948948          -25.82219
     34       2.00000          -0.939461          -25.56405
     35       2.00000          -0.929473          -25.29223
     36       2.00000          -0.902687          -24.56337
     37       2.00000          -0.891536          -24.25993
     38       2.00000          -0.889866          -24.21447
     39       2.00000          -0.876359          -23.84694
     40       2.00000          -0.875240          -23.81649
     41       2.00000          -0.858212          -23.35313
     42       2.00000          -0.839177          -22.83516
     43       2.00000          -0.788307          -21.45091
     44       2.00000          -0.782044          -21.28050
     45       2.00000          -0.769979          -20.95220
     46       2.00000          -0.766929          -20.86920
     47       2.00000          -0.751059          -20.43736
     48       2.00000          -0.732268          -19.92603
     49       2.00000          -0.731607          -19.90805
     50       2.00000          -0.711743          -19.36751
     51       2.00000          -0.686343          -18.67634
     52       2.00000          -0.680772          -18.52475
     53       2.00000          -0.673224          -18.31936
     54       2.00000          -0.669236          -18.21083
     55       2.00000          -0.661034          -17.98765
     56       2.00000          -0.645427          -17.56296
     57       2.00000          -0.617660          -16.80739
     58       2.00000          -0.614766          -16.72863
     59       2.00000          -0.614087          -16.71016
     60       2.00000          -0.613755          -16.70111
     61       2.00000          -0.604520          -16.44982
     62       2.00000          -0.603465          -16.42111
     63       2.00000          -0.584538          -15.90610
     64       2.00000          -0.577968          -15.72731
     65       2.00000          -0.576482          -15.68686
     66       2.00000          -0.570071          -15.51241
     67       2.00000          -0.569966          -15.50955
     68       2.00000          -0.569387          -15.49380
     69       2.00000          -0.561886          -15.28969
     70       2.00000          -0.544718          -14.82253
     71       2.00000          -0.540694          -14.71303
     72       2.00000          -0.529348          -14.40430
     73       2.00000          -0.528605          -14.38406
     74       2.00000          -0.526981          -14.33987
     75       2.00000          -0.526337          -14.32236
     76       2.00000          -0.505334          -13.75083
     77       2.00000          -0.504250          -13.72135
     78       2.00000          -0.499279          -13.58607
     79       2.00000          -0.497442          -13.53608
     80       2.00000          -0.496919          -13.52185
     81       2.00000          -0.495676          -13.48804
     82       2.00000          -0.490030          -13.33440
     83       2.00000          -0.472399          -12.85464
     84       2.00000          -0.447594          -12.17964
     85       2.00000          -0.446629          -12.15341
     86       2.00000          -0.437886          -11.91547
     87       2.00000          -0.434806          -11.83168
     88       2.00000          -0.409645          -11.14701
     89       2.00000          -0.402490          -10.95232
     90       2.00000          -0.393826          -10.71655
     91       2.00000          -0.391678          -10.65809
     92       2.00000          -0.355488           -9.67332
     93       2.00000          -0.351485           -9.56438
     94       0.00000          -0.264443           -7.19587
     95       0.00000          -0.262529           -7.14378
     96       0.00000          -0.221889           -6.03791
     97       0.00000          -0.215229           -5.85668
     98       0.00000          -0.202711           -5.51605
     99       0.00000          -0.200590           -5.45833
    100       0.00000          -0.173173           -4.71227
    101       0.00000          -0.166811           -4.53915
    102       0.00000          -0.151315           -4.11750
    103       0.00000          -0.149995           -4.08157
    104       0.00000          -0.072567           -1.97465
    105       0.00000          -0.072178           -1.96407
    106       0.00000          -0.070398           -1.91563
    107       0.00000          -0.065886           -1.79285
    108       0.00000          -0.060415           -1.64396
    109       0.00000          -0.059068           -1.60733
    110       0.00000          -0.057782           -1.57234
    111       0.00000          -0.054922           -1.49449
    112       0.00000          -0.041176           -1.12044
    113       0.00000          -0.031412           -0.85477
    114       0.00000          -0.031059           -0.84515
    115       0.00000          -0.029666           -0.80725
    116       0.00000          -0.025001           -0.68032
    117       0.00000          -0.022348           -0.60811
    118       0.00000          -0.020022           -0.54483
    119       0.00000          -0.011919           -0.32433
    120       0.00000          -0.011707           -0.31857
    121       0.00000          -0.011237           -0.30577
    122       0.00000          -0.002354           -0.06407
    123       0.00000           0.009268            0.25219
    124       0.00000           0.009995            0.27199
    125       0.00000           0.010923            0.29722
    126       0.00000           0.013281            0.36139
    127       0.00000           0.016754            0.45590
    128       0.00000           0.019113            0.52009
    129       0.00000           0.023780            0.64709
    130       0.00000           0.027849            0.75780
    131       0.00000           0.031965            0.86981
    132       0.00000           0.041307            1.12401
    133       0.00000           0.043244            1.17673
    134       0.00000           0.046802            1.27354
    135       0.00000           0.047651            1.29666
    136       0.00000           0.051810            1.40982
    137       0.00000           0.059525            1.61977
    138       0.00000           0.059680            1.62397
    139       0.00000           0.062057            1.68866
    140       0.00000           0.063914            1.73919
    141       0.00000           0.067850            1.84629
    142       0.00000           0.071126            1.93544
    143       0.00000           0.073384            1.99689
    144       0.00000           0.076777            2.08921
    145       0.00000           0.077524            2.10953
    146       0.00000           0.078465            2.13513
    147       0.00000           0.079459            2.16219
    148       0.00000           0.081545            2.21894
    149       0.00000           0.087496            2.38089
    150       0.00000           0.088879            2.41853
    151       0.00000           0.093949            2.55647
    152       0.00000           0.095504            2.59881
    153       0.00000           0.098333            2.67578
    154       0.00000           0.099393            2.70461
    155       0.00000           0.104001            2.83002
    156       0.00000           0.110564            3.00859
    157       0.00000           0.112809            3.06969
    158       0.00000           0.113099            3.07759
    159       0.00000           0.118647            3.22855
    160       0.00000           0.120497            3.27888
    161       0.00000           0.121365            3.30252
    162       0.00000           0.122632            3.33699
    163       0.00000           0.127247            3.46257
    164       0.00000           0.129906            3.53491
    165       0.00000           0.133159            3.62343
    166       0.00000           0.139710            3.80170
    167       0.00000           0.145147            3.94966
    168       0.00000           0.151237            4.11536
    169       0.00000           0.152823            4.15852
    170       0.00000           0.153248            4.17010
    171       0.00000           0.156542            4.25974
    172       0.00000           0.161565            4.39639
    173       0.00000           0.163829            4.45801
    174       0.00000           0.164900            4.48715
    175       0.00000           0.166413            4.52833
    176       0.00000           0.168501            4.58515
    177       0.00000           0.170009            4.62617
    178       0.00000           0.179438            4.88277
    179       0.00000           0.181420            4.93670
    180       0.00000           0.182655            4.97031
    181       0.00000           0.186167            5.06587
    182       0.00000           0.187908            5.11324
    183       0.00000           0.190266            5.17739
    184       0.00000           0.191220            5.20337
    185       0.00000           0.193947            5.27758
    186       0.00000           0.194805            5.30090
    187       0.00000           0.203799            5.54565
    188       0.00000           0.206222            5.61159
    189       0.00000           0.206970            5.63193
    190       0.00000           0.211488            5.75489
    191       0.00000           0.221088            6.01612
    192       0.00000           0.222634            6.05818
    193       0.00000           0.225266            6.12980
    194       0.00000           0.226506            6.16353
    195       0.00000           0.231901            6.31036
    196       0.00000           0.236082            6.42411
    197       0.00000           0.237995            6.47616
    198       0.00000           0.239807            6.52547
    199       0.00000           0.248457            6.76085
    200       0.00000           0.253134            6.88814
    201       0.00000           0.260367            7.08496
    202       0.00000           0.261734            7.12213
    203       0.00000           0.262484            7.14256
    204       0.00000           0.267469            7.27820

  Highest occupied state (VBM) at     -9.56438420 eV
  | Occupation number:      2.00000000

  Lowest unoccupied state (CBM) at    -7.19587034 eV
  | Occupation number:      0.00000000

  Overall HOMO-LUMO gap:      2.36851386 eV.
  Calculating total energy contributions from superposition of free atom densities.

  Total energy components:
  | Sum of eigenvalues            :        -653.24757581 Ha      -17775.77095906 eV
  | XC energy correction          :        -154.68542557 Ha       -4209.20459175 eV
  | XC potential correction       :         198.69100710 Ha        5406.65739099 eV
  | Free-atom electrostatic energy:        -469.48137628 Ha      -12775.23824563 eV
  | Hartree energy correction     :           0.00000000 Ha           0.00000000 eV
  | Entropy correction            :           0.00000000 Ha           0.00000000 eV
  | ---------------------------
  | Total energy                  :       -1078.72337056 Ha      -29353.55640546 eV
  | Total energy, T -> 0          :       -1078.72337056 Ha      -29353.55640546 eV  <-- do not rely on this value for anything but (periodic) metals
  | Electronic free energy        :       -1078.72337056 Ha      -29353.55640546 eV

  Derived energy quantities:
  | Kinetic energy                :        1068.34270528 Ha       29071.08413117 eV
  | Electrostatic energy          :       -1992.38065027 Ha      -54215.43594487 eV
  | Energy correction for multipole
  | error in Hartree potential    :           0.00000000 Ha           0.00000000 eV
  | Sum of eigenvalues per atom                           :        -386.42980346 eV
  | Total energy (T->0) per atom                          :        -638.12079142 eV  <-- do not rely on this value for anything but (periodic) metals
  | Electronic free energy per atom                       :        -638.12079142 eV
  Initialize hartree_potential_storage
  Max. number of atoms included in rho_multipole:           46

  End scf initialization - timings             :  max(cpu_time)    wall_clock(cpu1)
  | Time for scf. initialization               :        7.638 s           7.698 s
  | Boundary condition initialization          :        0.001 s           0.004 s
  | Integration                                :        5.790 s           5.796 s
  | Solution of K.-S. eqns.                    :        0.202 s           0.218 s
  | Grid partitioning                          :        0.732 s           0.736 s
  | Preloading free-atom quantities on grid    :        0.013 s           0.016 s
  | Free-atom superposition energy             :        0.065 s           0.065 s
  | Total energy evaluation                    :        0.001 s           0.005 s

  Partial memory accounting:
  | Current value for overall tracked memory usage on task 0  :           3.830 MB
  | Peak value for overall tracked memory usage on task 0     :          29.690 MB after allocating zora_vector2
  | Largest tracked array allocation on task 0 so far         :           9.057 MB  when allocating hamiltonian_shell
  Note:  These values currently only include a subset of arrays which are explicitly tracked.
  The "true" memory usage will be greater.
------------------------------------------------------------

------------------------------------------------------------
          Begin self-consistency iteration #    1

  Date     :  20210620, Time     :  172833.839
------------------------------------------------------------
  Evaluating new KS density.
  Integration grid: deviation in total charge (<rho> - N_e) =   1.421085E-13
  Pulay mixing of updated and previous charge densities.

  Evaluating partitioned Hartree potential by multipole expansion.
  | Analytical far-field extrapolation by fixed multipoles:
  | Hartree multipole sum: apparent total charge =  -0.242428E-03
  Summing up the Hartree potential with load balancing.
  Time summed over all CPUs for potential: real work       23.079 s, elapsed       40.440 s
  | RMS charge density error from multipole expansion :   0.126999E-01

  Start compute_balanced_batch_distribution
  Done load balancing, time needed:      0.006 s
  Integrating Hamiltonian matrix: batch-based integration with load balancing
  Time summed over all CPUs for integration: real work      157.591 s, elapsed      179.665 s
  Time get_set_full_local_matrix_scalapack:     0.018591 s
  Start compute_balanced_batch_distribution
  Done load balancing, time needed:      0.006 s

  Updating Kohn-Sham eigenvalues and eigenvectors using ELSI and the ELPA eigensolver.
  Finished transformation to standard eigenproblem
  | Time :     0.014 s
  Starting ELPA eigensolver
  Finished solving standard eigenproblem
  | Time :     0.076 s
  Finished back-transformation of eigenvectors
  | Time :     0.003 s

  Obtaining occupation numbers and chemical potential using ELSI.
  | Chemical potential (Fermi level):    -5.90948071 eV
  Writing Kohn-Sham eigenvalues.

  State    Occupation    Eigenvalue [Ha]    Eigenvalue [eV]
      1       2.00000          -9.986398         -271.74373
      2       2.00000          -9.985954         -271.73165
      3       2.00000          -9.974517         -271.42043
      4       2.00000          -9.974339         -271.41558
      5       2.00000          -9.974140         -271.41017
      6       2.00000          -9.974136         -271.41005
      7       2.00000          -9.972653         -271.36968
      8       2.00000          -9.971989         -271.35163
      9       2.00000          -9.971716         -271.34419
     10       2.00000          -9.971085         -271.32702
     11       2.00000          -9.957935         -270.96920
     12       2.00000          -9.956525         -270.93082
     13       2.00000          -9.949164         -270.73053
     14       2.00000          -9.949031         -270.72690
     15       2.00000          -9.948517         -270.71291
     16       2.00000          -9.948185         -270.70388
     17       2.00000          -9.943947         -270.58857
     18       2.00000          -9.943284         -270.57051
     19       2.00000          -9.942795         -270.55721
     20       2.00000          -9.942770         -270.55654
     21       2.00000          -9.942362         -270.54544
     22       2.00000          -9.942292         -270.54353
     23       2.00000          -9.942175         -270.54035
     24       2.00000          -9.941932         -270.53373
     25       2.00000          -9.941807         -270.53034
     26       2.00000          -9.941687         -270.52708
     27       2.00000          -9.941073         -270.51035
     28       2.00000          -9.940980         -270.50783
     29       2.00000          -0.871960          -23.72723
     30       2.00000          -0.856755          -23.31350
     31       2.00000          -0.829454          -22.57059
     32       2.00000          -0.828637          -22.54836
     33       2.00000          -0.800646          -21.78669
     34       2.00000          -0.784429          -21.34541
     35       2.00000          -0.781342          -21.26140
     36       2.00000          -0.755513          -20.55854
     37       2.00000          -0.740146          -20.14040
     38       2.00000          -0.737713          -20.07418
     39       2.00000          -0.726910          -19.78024
     40       2.00000          -0.726031          -19.75630
     41       2.00000          -0.705316          -19.19263
     42       2.00000          -0.689367          -18.75864
     43       2.00000          -0.644451          -17.53641
     44       2.00000          -0.638252          -17.36773
     45       2.00000          -0.621051          -16.89964
     46       2.00000          -0.618088          -16.81902
     47       2.00000          -0.617121          -16.79272
     48       2.00000          -0.591158          -16.08623
     49       2.00000          -0.590562          -16.07001
     50       2.00000          -0.575765          -15.66736
     51       2.00000          -0.545831          -14.85282
     52       2.00000          -0.540985          -14.72095
     53       2.00000          -0.535611          -14.57470
     54       2.00000          -0.532126          -14.47989
     55       2.00000          -0.519409          -14.13383
     56       2.00000          -0.502909          -13.68486
     57       2.00000          -0.476589          -12.96863
     58       2.00000          -0.476185          -12.95766
     59       2.00000          -0.474436          -12.91006
     60       2.00000          -0.474126          -12.90163
     61       2.00000          -0.462204          -12.57720
     62       2.00000          -0.461450          -12.55668
     63       2.00000          -0.460772          -12.53823
     64       2.00000          -0.439966          -11.97207
     65       2.00000          -0.439285          -11.95354
     66       2.00000          -0.438763          -11.93934
     67       2.00000          -0.429799          -11.69543
     68       2.00000          -0.424313          -11.54614
     69       2.00000          -0.423808          -11.53240
     70       2.00000          -0.413303          -11.24654
     71       2.00000          -0.404910          -11.01817
     72       2.00000          -0.403057          -10.96773
     73       2.00000          -0.401979          -10.93839
     74       2.00000          -0.395502          -10.76217
     75       2.00000          -0.394737          -10.74133
     76       2.00000          -0.372275          -10.13013
     77       2.00000          -0.367885          -10.01067
     78       2.00000          -0.363644           -9.89527
     79       2.00000          -0.362784           -9.87186
     80       2.00000          -0.358685           -9.76032
     81       2.00000          -0.358216           -9.74755
     82       2.00000          -0.357644           -9.73198
     83       2.00000          -0.335607           -9.13233
     84       2.00000          -0.319521           -8.69460
     85       2.00000          -0.318566           -8.66862
     86       2.00000          -0.313782           -8.53845
     87       2.00000          -0.310544           -8.45033
     88       2.00000          -0.281992           -7.67338
     89       2.00000          -0.271806           -7.39621
     90       2.00000          -0.266855           -7.26148
     91       2.00000          -0.264774           -7.20487
     92       2.00000          -0.227252           -6.18383
     93       2.00000          -0.224325           -6.10419
     94       0.00000          -0.139024           -3.78303
     95       0.00000          -0.137789           -3.74943
     96       0.00000          -0.096064           -2.61403
     97       0.00000          -0.088811           -2.41666
     98       0.00000          -0.077183           -2.10026
     99       0.00000          -0.072815           -1.98139
    100       0.00000          -0.054430           -1.48110
    101       0.00000          -0.048274           -1.31360
    102       0.00000          -0.026217           -0.71341
    103       0.00000          -0.024515           -0.66708
    104       0.00000          -0.022697           -0.61761
    105       0.00000          -0.021520           -0.58560
    106       0.00000          -0.016914           -0.46027
    107       0.00000          -0.014969           -0.40732
    108       0.00000          -0.006780           -0.18448
    109       0.00000          -0.006729           -0.18310
    110       0.00000           0.009044            0.24610
    111       0.00000           0.009233            0.25126
    112       0.00000           0.011076            0.30139
    113       0.00000           0.019236            0.52344
    114       0.00000           0.029665            0.80721
    115       0.00000           0.029906            0.81379
    116       0.00000           0.030989            0.84324
    117       0.00000           0.031290            0.85146
    118       0.00000           0.055486            1.50985
    119       0.00000           0.055798            1.51835
    120       0.00000           0.056237            1.53029
    121       0.00000           0.056978            1.55045
    122       0.00000           0.061693            1.67875
    123       0.00000           0.066966            1.82222
    124       0.00000           0.074549            2.02858
    125       0.00000           0.079336            2.15884
    126       0.00000           0.085872            2.33670
    127       0.00000           0.086269            2.34751
    128       0.00000           0.089846            2.44483
    129       0.00000           0.101249            2.75514
    130       0.00000           0.102104            2.77839
    131       0.00000           0.107280            2.91923
    132       0.00000           0.111007            3.02065
    133       0.00000           0.120446            3.27750
    134       0.00000           0.121257            3.29956
    135       0.00000           0.122799            3.34153
    136       0.00000           0.124562            3.38950
    137       0.00000           0.125588            3.41742
    138       0.00000           0.128394            3.49377
    139       0.00000           0.138497            3.76870
    140       0.00000           0.141990            3.86376
    141       0.00000           0.142572            3.87957
    142       0.00000           0.145348            3.95512
    143       0.00000           0.150344            4.09108
    144       0.00000           0.152694            4.15502
    145       0.00000           0.153075            4.16538
    146       0.00000           0.156249            4.25175
    147       0.00000           0.157748            4.29255
    148       0.00000           0.158911            4.32419
    149       0.00000           0.161828            4.40357
    150       0.00000           0.165644            4.50741
    151       0.00000           0.167577            4.56000
    152       0.00000           0.168714            4.59093
    153       0.00000           0.169844            4.62168
    154       0.00000           0.172862            4.70382
    155       0.00000           0.180596            4.91428
    156       0.00000           0.183108            4.98261
    157       0.00000           0.183703            4.99880
    158       0.00000           0.185895            5.05845
    159       0.00000           0.187593            5.10466
    160       0.00000           0.189244            5.14960
    161       0.00000           0.195650            5.32391
    162       0.00000           0.197624            5.37761
    163       0.00000           0.202265            5.50392
    164       0.00000           0.204313            5.55964
    165       0.00000           0.205116            5.58148
    166       0.00000           0.205882            5.60233
    167       0.00000           0.209526            5.70148
    168       0.00000           0.212830            5.79140
    169       0.00000           0.223369            6.07819
    170       0.00000           0.226096            6.15237
    171       0.00000           0.227204            6.18253
    172       0.00000           0.228860            6.22760
    173       0.00000           0.231410            6.29698
    174       0.00000           0.233565            6.35563
    175       0.00000           0.238909            6.50106
    176       0.00000           0.240651            6.54845
    177       0.00000           0.241710            6.57727
    178       0.00000           0.246160            6.69835
    179       0.00000           0.247766            6.74206
    180       0.00000           0.251345            6.83946
    181       0.00000           0.252691            6.87607
    182       0.00000           0.255022            6.93951
    183       0.00000           0.257716            7.01280
    184       0.00000           0.269826            7.34234
    185       0.00000           0.270675            7.36543
    186       0.00000           0.277411            7.54873
    187       0.00000           0.279555            7.60708
    188       0.00000           0.282438            7.68554
    189       0.00000           0.285672            7.77354
    190       0.00000           0.286496            7.79595
    191       0.00000           0.289639            7.88149
    192       0.00000           0.293413            7.98419
    193       0.00000           0.306176            8.33147
    194       0.00000           0.309519            8.42244
    195       0.00000           0.311216            8.46863
    196       0.00000           0.316427            8.61041
    197       0.00000           0.322607            8.77859
    198       0.00000           0.325023            8.84433
    199       0.00000           0.327990            8.92507
    200       0.00000           0.329372            8.96268
    201       0.00000           0.331415            9.01825
    202       0.00000           0.336706            9.16224
    203       0.00000           0.346680            9.43363
    204       0.00000           0.347993            9.46936

  Highest occupied state (VBM) at     -6.10419308 eV
  | Occupation number:      2.00000000

  Lowest unoccupied state (CBM) at    -3.78303067 eV
  | Occupation number:      0.00000000

  Overall HOMO-LUMO gap:      2.32116241 eV.

  Total energy components:
  | Sum of eigenvalues            :        -623.30452570 Ha      -16960.97910929 eV
  | XC energy correction          :        -156.70268902 Ha       -4264.09712313 eV
  | XC potential correction       :         201.30929375 Ha        5477.90459552 eV
  | Free-atom electrostatic energy:        -469.48137628 Ha      -12775.23824563 eV
  | Hartree energy correction     :         -29.57129696 Ha        -804.67593177 eV
  | Entropy correction            :           0.00000000 Ha           0.00000000 eV
  | ---------------------------
  | Total energy                  :       -1077.75059422 Ha      -29327.08581430 eV
  | Total energy, T -> 0          :       -1077.75059422 Ha      -29327.08581430 eV  <-- do not rely on this value for anything but (periodic) metals
  | Electronic free energy        :       -1077.75059422 Ha      -29327.08581430 eV

  Derived energy quantities:
  | Kinetic energy                :        1077.38294185 Ha       29317.08148453 eV
  | Electrostatic energy          :       -1998.43084705 Ha      -54380.07017570 eV
  | Energy correction for multipole
  | error in Hartree potential    :          -0.06864279 Ha          -1.86786546 eV
  | Sum of eigenvalues per atom                           :        -368.71693716 eV
  | Total energy (T->0) per atom                          :        -637.54534379 eV  <-- do not rely on this value for anything but (periodic) metals
  | Electronic free energy per atom                       :        -637.54534379 eV

  Self-consistency convergence accuracy:
  | Change of charge density      :  0.1059E+01
  | Change of sum of eigenvalues  :  0.8148E+03 eV
  | Change of total energy        :  0.2647E+02 eV

  End self-consistency iteration #     1       :  max(cpu_time)    wall_clock(cpu1)
  | Time for this iteration                    :        5.292 s           5.297 s
  | Charge density update                      :        1.184 s           1.184 s
  | Density mixing                             :        0.003 s           0.004 s
  | Hartree multipole update                   :        0.009 s           0.010 s
  | Hartree multipole summation                :        0.732 s           0.734 s
  | Integration                                :        3.214 s           3.214 s
  | Solution of K.-S. eqns.                    :        0.137 s           0.138 s
  | Total energy evaluation                    :        0.000 s           0.000 s

  Partial memory accounting:
[...]
     34       2.00000          -0.732101          -19.92148
     35       2.00000          -0.727327          -19.79158
     36       2.00000          -0.699276          -19.02826
     37       2.00000          -0.686010          -18.66728
     38       2.00000          -0.683531          -18.59982
     39       2.00000          -0.673848          -18.33634
     40       2.00000          -0.672923          -18.31115
     41       2.00000          -0.649188          -17.66529
     42       2.00000          -0.631073          -17.17236
     43       2.00000          -0.589620          -16.04439
     44       2.00000          -0.583432          -15.87599
     45       2.00000          -0.562407          -15.30389
     46       2.00000          -0.560120          -15.24164
     47       2.00000          -0.559113          -15.21423
     48       2.00000          -0.534376          -14.54110
     49       2.00000          -0.533748          -14.52402
     50       2.00000          -0.517770          -14.08924
     51       2.00000          -0.487279          -13.25955
     52       2.00000          -0.481709          -13.10798
     53       2.00000          -0.478478          -13.02004
     54       2.00000          -0.474989          -12.92511
     55       2.00000          -0.461461          -12.55698
     56       2.00000          -0.443742          -12.07483
     57       2.00000          -0.417057          -11.34871
     58       2.00000          -0.416815          -11.34212
     59       2.00000          -0.413764          -11.25909
     60       2.00000          -0.413145          -11.24226
     61       2.00000          -0.405589          -11.03663
     62       2.00000          -0.404445          -11.00550
     63       2.00000          -0.399983          -10.88409
     64       2.00000          -0.384128          -10.45266
     65       2.00000          -0.383816          -10.44417
     66       2.00000          -0.381595          -10.38374
     67       2.00000          -0.369167          -10.04554
     68       2.00000          -0.365052           -9.93356
     69       2.00000          -0.364943           -9.93061
     70       2.00000          -0.361548           -9.83821
     71       2.00000          -0.359831           -9.79149
     72       2.00000          -0.352173           -9.58312
     73       2.00000          -0.344564           -9.37606
     74       2.00000          -0.335749           -9.13620
     75       2.00000          -0.334205           -9.09418
     76       2.00000          -0.333806           -9.08332
     77       2.00000          -0.330270           -8.98711
     78       2.00000          -0.304542           -8.28700
     79       2.00000          -0.303746           -8.26536
     80       2.00000          -0.298788           -8.13044
     81       2.00000          -0.297707           -8.10103
     82       2.00000          -0.296969           -8.08094
     83       2.00000          -0.280260           -7.62625
     84       2.00000          -0.279952           -7.61788
     85       2.00000          -0.274304           -7.46418
     86       2.00000          -0.270075           -7.34910
     87       2.00000          -0.267284           -7.27316
     88       2.00000          -0.243058           -6.61394
     89       2.00000          -0.232439           -6.32499
     90       2.00000          -0.227560           -6.19224
     91       2.00000          -0.225053           -6.12401
     92       2.00000          -0.184623           -5.02384
     93       2.00000          -0.181453           -4.93758
     94       0.00000          -0.096923           -2.63742
     95       0.00000          -0.096250           -2.61911
     96       0.00000          -0.054872           -1.49314
     97       0.00000          -0.047039           -1.27999
     98       0.00000          -0.037094           -1.00939
     99       0.00000          -0.032258           -0.87779
    100       0.00000          -0.013593           -0.36990
    101       0.00000          -0.007481           -0.20357
    102       0.00000          -0.006544           -0.17807
    103       0.00000          -0.000558           -0.01520
    104       0.00000           0.003633            0.09885
    105       0.00000           0.006200            0.16870
    106       0.00000           0.014321            0.38969
    107       0.00000           0.014441            0.39297
    108       0.00000           0.017552            0.47762
    109       0.00000           0.018890            0.51403
    110       0.00000           0.028251            0.76876
    111       0.00000           0.028471            0.77473
    112       0.00000           0.030070            0.81826
    113       0.00000           0.039417            1.07260
    114       0.00000           0.049687            1.35206
    115       0.00000           0.049945            1.35907
    116       0.00000           0.051297            1.39587
    117       0.00000           0.052531            1.42943
    118       0.00000           0.074662            2.03167
    119       0.00000           0.076273            2.07550
    120       0.00000           0.088783            2.41590
    121       0.00000           0.089839            2.44464
    122       0.00000           0.097290            2.64740
    123       0.00000           0.098940            2.69229
    124       0.00000           0.099372            2.70404
    125       0.00000           0.104029            2.83077
    126       0.00000           0.115018            3.12979
    127       0.00000           0.117707            3.20298
    128       0.00000           0.119091            3.24064
    129       0.00000           0.123156            3.35125
    130       0.00000           0.132451            3.60417
    131       0.00000           0.136324            3.70956
    132       0.00000           0.140497            3.82311
    133       0.00000           0.141726            3.85656
    134       0.00000           0.146325            3.98169
    135       0.00000           0.149540            4.06919
    136       0.00000           0.152059            4.13775
    137       0.00000           0.158276            4.30691
    138       0.00000           0.159438            4.33854
    139       0.00000           0.168114            4.57461
    140       0.00000           0.169384            4.60917
    141       0.00000           0.171609            4.66972
    142       0.00000           0.172471            4.69317
    143       0.00000           0.177282            4.82410
    144       0.00000           0.182088            4.95487
    145       0.00000           0.185661            5.05208
    146       0.00000           0.188946            5.14147
    147       0.00000           0.190131            5.17374
    148       0.00000           0.194468            5.29175
    149       0.00000           0.195194            5.31149
    150       0.00000           0.197148            5.36468
    151       0.00000           0.198322            5.39662
    152       0.00000           0.199305            5.42338
    153       0.00000           0.200726            5.46204
    154       0.00000           0.203494            5.53734
    155       0.00000           0.206129            5.60904
    156       0.00000           0.216699            5.89667
    157       0.00000           0.219117            5.96247
    158       0.00000           0.220018            5.98699
    159       0.00000           0.221186            6.01877
    160       0.00000           0.223355            6.07779
    161       0.00000           0.226951            6.17565
    162       0.00000           0.227983            6.20374
    163       0.00000           0.232315            6.32161
    164       0.00000           0.235799            6.41642
    165       0.00000           0.236548            6.43679
    166       0.00000           0.237985            6.47589
    167       0.00000           0.242507            6.59896
    168       0.00000           0.245097            6.66943
    169       0.00000           0.249908            6.80034
    170       0.00000           0.255163            6.94334
    171       0.00000           0.258330            7.02951
    172       0.00000           0.263404            7.16759
    173       0.00000           0.265103            7.21381
    174       0.00000           0.265449            7.22323
    175       0.00000           0.268483            7.30580
    176       0.00000           0.275263            7.49029
    177       0.00000           0.278233            7.57109
    178       0.00000           0.279381            7.60235
    179       0.00000           0.282598            7.68989
    180       0.00000           0.284875            7.75186
    181       0.00000           0.286099            7.78516
    182       0.00000           0.287847            7.83270
    183       0.00000           0.291161            7.92290
    184       0.00000           0.299414            8.14746
    185       0.00000           0.302675            8.23622
    186       0.00000           0.303372            8.25518
    187       0.00000           0.309208            8.41397
    188       0.00000           0.310711            8.45488
    189       0.00000           0.312300            8.49811
    190       0.00000           0.314767            8.56524
    191       0.00000           0.321510            8.74873
    192       0.00000           0.330739            8.99986
    193       0.00000           0.335511            9.12973
    194       0.00000           0.335921            9.14086
    195       0.00000           0.341694            9.29797
    196       0.00000           0.350191            9.52919
    197       0.00000           0.356504            9.70096
    198       0.00000           0.358444            9.75376
    199       0.00000           0.359763            9.78964
    200       0.00000           0.361867            9.84689
    201       0.00000           0.365985            9.95896
    202       0.00000           0.372493           10.13606
    203       0.00000           0.375216           10.21014
    204       0.00000           0.376930           10.25678

  Highest occupied state (VBM) at     -4.93758384 eV
  | Occupation number:      2.00000000

  Lowest unoccupied state (CBM) at    -2.63742112 eV
  | Occupation number:      0.00000000

  Overall HOMO-LUMO gap:      2.30016271 eV.

  Total energy components:
  | Sum of eigenvalues            :        -613.14784426 Ha      -16684.60174552 eV
  | XC energy correction          :        -157.62737973 Ha       -4289.25923746 eV
  | XC potential correction       :         202.49153651 Ha        5510.07505786 eV
  | Free-atom electrostatic energy:        -469.48137628 Ha      -12775.23824563 eV
  | Hartree energy correction     :         -39.61545408 Ha       -1077.99135305 eV
  | Entropy correction            :           0.00000000 Ha           0.00000000 eV
  | ---------------------------
  | Total energy                  :       -1077.38051784 Ha      -29317.01552381 eV
  | Total energy, T -> 0          :       -1077.38051784 Ha      -29317.01552381 eV  <-- do not rely on this value for anything but (periodic) metals
  | Electronic free energy        :       -1077.38051784 Ha      -29317.01552381 eV

  Derived energy quantities:
  | Kinetic energy                :        1074.48318599 Ha       29238.17511273 eV
  | Electrostatic energy          :       -1994.23632410 Ha      -54265.93139908 eV
  | Energy correction for multipole
  | error in Hartree potential    :          -0.12788265 Ha          -3.47986395 eV
  | Sum of eigenvalues per atom                           :        -362.70873360 eV
  | Total energy (T->0) per atom                          :        -637.32642443 eV  <-- do not rely on this value for anything but (periodic) metals
  | Electronic free energy per atom                       :        -637.32642443 eV
  End evaluation of scaled ZORA corrections.
  | Time for scaled ZORA corrections           :        5.751 s           5.763 s
------------------------------------------------------------

  Energy and forces in a compact form:
  | Total energy uncorrected      :         -0.293170155238095E+05 eV
  | Total energy corrected        :         -0.293170155238095E+05 eV  <-- do not rely on this value for anything but (periodic) metals
  | Electronic free energy        :         -0.293170155238095E+05 eV

  ------------------------------------ 
  Start decomposition of the XC Energy 
  ------------------------------------ 
  X and C from original XC functional choice 
  Hartree-Fock Energy :          0.000000000 Ha              0.000000000 eV
  X Energy            :       -151.405644242 Ha          -4119.957200938 eV
  C Energy            :         -6.221735484 Ha           -169.302036522 eV
  Total XC Energy     :       -157.627379726 Ha          -4289.259237460 eV
  ------------------------------------ 
  LDA X and C from self-consistent density 
  X Energy LDA        :       -137.116522387 Ha          -3731.130411972 eV
  C Energy LDA        :        -11.992493259 Ha           -326.332345172 eV
  ------------------------------------ 
  End decomposition of the XC Energy 
  ------------------------------------ 

------------------------------------------------------------

------------------------------------------------------------------------------
  Final output of selected total energy values:

  The following output summarizes some interesting total energy values
  at the end of a run (AFTER all relaxation, molecular dynamics, etc.).

  | Total energy of the DFT / Hartree-Fock s.c.f. calculation      :         -29317.015523809 eV
  | Final zero-broadening corrected energy (caution - metals only) :         -29317.015523809 eV
  | For reference only, the value of 1 Hartree used in FHI-aims is :             27.211384500 eV

  Before relying on these values, please be sure to understand exactly which
  total energy value is referred to by a given number. Different objects may
  all carry the same name 'total energy'. Definitions:

  Total energy of the DFT / Hartree-Fock s.c.f. calculation:
  | Note that this energy does not include ANY quantities calculated after the
  | s.c.f. cycle, in particular not ANY RPA, MP2, etc. many-body perturbation terms.
  | Scalar relativistic effects have been included in the 'scaled ZORA' approximation.

  Final zero-broadening corrected energy:
  | For metallic systems only, a broadening of the occupation numbers at the Fermi
  | level can be extrapolated back to zero broadening by an electron-gas inspired
  | formula. For all systems that are not real metals, this value can be
  | meaningless and should be avoided.

------------------------------------------------------------------------------
  Methods described in the following list of references were used in this FHI-aims run.
  If you publish the results, please make sure to cite these reference if they apply.
  FHI-aims is an academic code, and for our developers (often, Ph.D. students
  and postdocs), scientific credit in the community is essential.
  Thank you for helping us!

  For any use of FHI-aims, please cite:

    Volker Blum, Ralf Gehrke, Felix Hanke, Paula Havu, Ville Havu,
    Xinguo Ren, Karsten Reuter, and Matthias Scheffler
    'Ab initio molecular simulations with numeric atom-centered orbitals'
    Computer Physics Communications 180, 2175-2196 (2009)
    http://dx.doi.org/10.1016/j.cpc.2009.06.022


  The scalable eigensolver library ELPA was used in your run.
  ELPA is essential especially for large systems on hundreds or thousands of CPUs.
  For ELPA, please cite:

    Andreas Marek, Volker Blum, Rainer Johanni, Ville Havu, Bruno Lang,
    Thomas Auckenthaler, Alexander Heinecke, Hans-Joachim Bungartz, and Hermann Lederer,
    'The ELPA Library - Scalable Parallel Eigenvalue Solutions
    for Electronic Structure Theory and Computational Science'
    The Journal of Physics: Condensed Matter 26, 213201 (2014).
    http://dx.doi.org/10.1088/0953-8984/26/21/213201


  The ELSI infrastructure was used in your run to solve the Kohn-Sham electronic structure.
  Please check out http://elsi-interchange.org to learn more.
  If scalability is important for your project, please acknowledge ELSI by citing:

    V. W-z. Yu, F. Corsetti, A. Garcia, W. P. Huhn, M. Jacquelin, W. Jia,
    B. Lange, L. Lin, J. Lu, W. Mi, A. Seifitokaldani, A. Vazquez-Mayagoitia,
    C. Yang, H. Yang, and V. Blum
    'ELSI: A unified software interface for Kohn-Sham electronic structure solvers'
    Computer Physics Communications 222, 267-285 (2018).
    http://dx.doi.org/10.1016/j.cpc.2017.09.007


  For the real-space grid partitioning and parallelization used in this calculation, please cite:

    Ville Havu, Volker Blum, Paula Havu, and Matthias Scheffler,
    'Efficient O(N) integration for all-electron electronic structure calculation'
    'using numerically tabulated basis functions'
    Journal of Computational Physics 228, 8367-8379 (2009).
    http://dx.doi.org/10.1016/j.jcp.2009.08.008

  Of course, there are many other important community references, e.g., those cited in the
  above references. Our list is limited to references that describe implementations in the
  FHI-aims code. The reason is purely practical (length of this list) - please credit others as well.

------------------------------------------------------------
          Leaving FHI-aims.
          Date     :  20210620, Time     :  173002.215

          Computational steps:
          | Number of self-consistency cycles          :           17
          | Number of SCF (re)initializations          :            1

          Detailed time accounting                     :  max(cpu_time)    wall_clock(cpu1)
          | Total time                                 :       96.262 s          96.450 s
          | Preparation time                           :        0.191 s           0.196 s
          | Boundary condition initalization           :        0.001 s           0.004 s
          | Grid partitioning                          :        0.732 s           0.736 s
          | Preloading free-atom quantities on grid    :        0.013 s           0.016 s
          | Free-atom superposition energy             :        0.065 s           0.065 s
          | Total time for integrations                :       56.893 s          56.900 s
          | Total time for solution of K.-S. equations :        2.522 s           2.546 s
          | Total time for density update              :       20.365 s          20.325 s
          | Total time for mixing                      :        0.123 s           0.124 s
          | Total time for Hartree multipole update    :        0.148 s           0.154 s
          | Total time for Hartree multipole sum       :        8.368 s           8.373 s
          | Total time for total energy evaluation     :        0.005 s           0.031 s
          | Total time for scaled ZORA corrections     :        5.751 s           5.763 s

          Partial memory accounting:
          | Residual value for overall tracked memory usage across tasks :     0.000000 MB (should be 0.000000 MB)
          | Peak values for overall tracked memory usage (after allocating zora_vector2):
          |   Minimum:       29.046 MB (on task 49)
          |   Maximum:       37.351 MB (on task  7)
          |   Average:       33.355 MB
          | Largest tracked array allocation (hamiltonian_shell):
          |   Minimum:        9.057 MB (on task  1)
          |   Maximum:        9.057 MB (on task  1)
          |   Average:        9.057 MB
          Note:  These values currently only include a subset of arrays which are explicitly tracked.
          The "true" memory usage will be greater.

          Have a nice day.
------------------------------------------------------------
