  MPI-parallelism will be employed.
------------------------------------------------------------
          Invoking FHI-aims ...
          Version 180607
          Git rev. (modified): 6724847 Fix JSON memory corruption in scf_solver
          Compiled on 2018/06/27 at 16:00:31 on host coe.psc.edu.

          When using FHI-aims, please cite the following reference:

          Volker Blum, Ralf Gehrke, Felix Hanke, Paula Havu,
          Ville Havu, Xinguo Ren, Karsten Reuter, and Matthias Scheffler,
          'Ab Initio Molecular Simulations with Numeric Atom-Centered Orbitals',
          Computer Physics Communications 180, 2175-2196 (2009)

          For any questions about FHI-aims, please visit the aimsclub website
          with its forums and wiki. Contributions to both the forums and the
          wiki are warmly encouraged - they are for you, and everyone is welcome there.

------------------------------------------------------------



  Date     :  20210727, Time     :  231950.416
  Time zero on CPU 1             :   0.369844000000000E+00  s.
  Internal wall clock time zero  :           396659990.416  s.

  FHI-aims created a unique identifier for this run for later identification
  aims_uuid : 7E9962A1-9A9D-47B4-AA05-6CB6ABD2E447

  Using       56 parallel tasks.
  Task        0 on host d018 reporting.
  Task        1 on host d018 reporting.
  Task        2 on host d018 reporting.
  Task        3 on host d018 reporting.
  Task        4 on host d018 reporting.
  Task        5 on host d018 reporting.
  Task        6 on host d018 reporting.
  Task        7 on host d018 reporting.
  Task        8 on host d018 reporting.
  Task        9 on host d018 reporting.
  Task       10 on host d018 reporting.
  Task       11 on host d018 reporting.
  Task       12 on host d018 reporting.
  Task       13 on host d018 reporting.
  Task       14 on host d018 reporting.
  Task       15 on host d018 reporting.
  Task       16 on host d018 reporting.
  Task       17 on host d018 reporting.
  Task       18 on host d018 reporting.
  Task       19 on host d018 reporting.
  Task       20 on host d018 reporting.
  Task       21 on host d018 reporting.
  Task       22 on host d018 reporting.
  Task       23 on host d018 reporting.
  Task       24 on host d018 reporting.
  Task       25 on host d018 reporting.
  Task       26 on host d018 reporting.
  Task       27 on host d018 reporting.
  Task       28 on host d018 reporting.
  Task       29 on host d018 reporting.
  Task       30 on host d018 reporting.
  Task       31 on host d018 reporting.
  Task       32 on host d018 reporting.
  Task       33 on host d018 reporting.
  Task       34 on host d018 reporting.
  Task       35 on host d018 reporting.
  Task       36 on host d018 reporting.
  Task       37 on host d018 reporting.
  Task       38 on host d018 reporting.
  Task       39 on host d018 reporting.
  Task       40 on host d018 reporting.
  Task       41 on host d018 reporting.
  Task       42 on host d018 reporting.
  Task       43 on host d018 reporting.
  Task       44 on host d018 reporting.
  Task       45 on host d018 reporting.
  Task       46 on host d018 reporting.
  Task       47 on host d018 reporting.
  Task       48 on host d018 reporting.
  Task       49 on host d018 reporting.
  Task       50 on host d018 reporting.
  Task       51 on host d018 reporting.
  Task       52 on host d018 reporting.
  Task       53 on host d018 reporting.
  Task       54 on host d018 reporting.
  Task       55 on host d018 reporting.

  Performing system and environment tests:
  *** Environment variable OMP_NUM_THREADS is not set
  *** For performance reasons you might want to set it to 1
  | Stacksize not measured: no C compiler
  | Checking for scalapack...
  | Testing pdtran()...
  | All pdtran() tests passed.

  Obtaining array dimensions for all initial allocations:
  
  -----------------------------------------------------------------------
  Parsing control.in (first pass over file, find array dimensions only).
  The contents of control.in will be repeated verbatim below
  unless switched off by setting 'verbatim_writeout .false.' .
  in the first line of control.in .
  -----------------------------------------------------------------------
  
  #===============================================================================
  # FHI-aims file: ./Runs/es/control.in
  # Created using the Atomic Simulation Environment (ASE)
  # Mon Jan 13 16:04:38 2020
  #===============================================================================
  xc                                 pbe
  relativistic                       zora scalar 1e-12
  occupation_type                    gaussian 0.0001
  load_balancing                     .true.
  KS_method                          scalapack_fast
  mixer                              pulay
  n_max_pulay                        5
  charge_mix_param                   0.4
  sc_accuracy_etot                   1e-6
  sc_accuracy_eev                    1e-4
  sc_accuracy_rho                    1e-6
  sc_iter_limit                      100
  prodbas_threshold                  1e-4
  basis_threshold                    1e-5
  override_illconditioning           .true.
  use_logsbt                         .true.
  spin                               none
  charge                             0
  #===============================================================================
  
  ################################################################################
  #
  #  FHI-aims code project
  # Volker Blum, Fritz Haber Institute Berlin, 2009
  #
  #  Suggested "tight" defaults for H atom (to be pasted into control.in file)
  #
  ################################################################################
    species        H
  #     global species definitions
      nucleus             1
      mass                1.00794
  #
      l_hartree           6
  #
      cut_pot             4.0  2.0  1.0
      basis_dep_cutoff    1e-4
  #
      radial_base         24 7.0
      radial_multiplier   2
      angular_grids       specified
        division   0.1930   50
        division   0.3175  110
        division   0.4293  194
        division   0.5066  302
        division   0.5626  434
  #      division   0.5922  590
  #      division   0.6227  974
  #      division   0.6868 1202
  #      outer_grid  770
        outer_grid  434
  ################################################################################
  #
  #  Definition of "minimal" basis
  #
  ################################################################################
  #     valence basis states
      valence      1  s   1.
  #     ion occupancy
      ion_occ      1  s   0.5
  ################################################################################
  #
  #  Suggested additional basis functions. For production calculations,
  #  uncomment them one after another (the most important basis functions are
  #  listed first).
  #
  #  Basis constructed for dimers: 0.5 A, 0.7 A, 1.0 A, 1.5 A, 2.5 A
  #
  ################################################################################
  #  "First tier" - improvements: -1014.90 meV to -62.69 meV
       hydro 2 s 2.1
       hydro 2 p 3.5
  #  "Second tier" - improvements: -12.89 meV to -1.83 meV
       hydro 1 s 0.85
       hydro 2 p 3.7
       hydro 2 s 1.2
       hydro 3 d 7
  #  "Third tier" - improvements: -0.25 meV to -0.12 meV
  #     hydro 4 f 11.2
  #     hydro 3 p 4.8
  #     hydro 4 d 9
  #     hydro 3 s 3.2
  ################################################################################
  #
  # For methods that use the localized form of the "resolution of identity" for
  # the two-electron Coulomb operator (RI_method LVL), particularly Hartree-Fock and
  # hybrid density functional calculations, the highest accuracy can be obtained by
  # uncommenting the line beginning with "for_aux"  below, thus adding an extra g radial
  # function to the construction of the product basis set for the expansion.
  # See Ref. New J. Phys. 17, 093020 (2015) for more information, particularly Figs. 1 and 6.
  #
  ################################################################################
  #
  # for_aux hydro 5 g 6.0
  ################################################################################
  #
  #  FHI-aims code project
  # Volker Blum, Fritz Haber Institute Berlin, 2009
  #
  #  Suggested "tight" defaults for C atom (to be pasted into control.in file)
  #
  ################################################################################
    species        C
  #     global species definitions
      nucleus             6
      mass                12.0107
  #
      l_hartree           6
  #
      cut_pot             4.0  2.0  1.0
      basis_dep_cutoff    1e-4
  #
      radial_base         34 7.0
      radial_multiplier   2
      angular_grids specified
        division   0.2187   50
        division   0.4416  110
        division   0.6335  194
        division   0.7727  302
        division   0.8772  434
  #      division   0.9334  590
  #      division   0.9924  770
  #      division   1.0230  974
  #      division   1.5020 1202
  #     outer_grid  974
        outer_grid  434
  ################################################################################
  #
  #  Definition of "minimal" basis
  #
  ################################################################################
  #     valence basis states
      valence      2  s   2.
      valence      2  p   2.
  #     ion occupancy
      ion_occ      2  s   1.
      ion_occ      2  p   1.
  ################################################################################
  #
  #  Suggested additional basis functions. For production calculations,
  #  uncomment them one after another (the most important basis functions are
  #  listed first).
  #
  #  Constructed for dimers: 1.0 A, 1.25 A, 1.5 A, 2.0 A, 3.0 A
  #
  ################################################################################
  #  "First tier" - improvements: -1214.57 meV to -155.61 meV
       hydro 2 p 1.7
       hydro 3 d 6
       hydro 2 s 4.9
  #  "Second tier" - improvements: -67.75 meV to -5.23 meV
       hydro 4 f 9.8
       hydro 3 p 5.2
       hydro 3 s 4.3
       hydro 5 g 14.4
       hydro 3 d 6.2
  #  "Third tier" - improvements: -2.43 meV to -0.60 meV
  #     hydro 2 p 5.6
  #     hydro 2 s 1.4
  #     hydro 3 d 4.9
  #     hydro 4 f 11.2
  #  "Fourth tier" - improvements: -0.39 meV to -0.18 meV
  #     hydro 2 p 2.1
  #     hydro 5 g 16.4
  #     hydro 4 d 13.2
  #     hydro 3 s 13.6
  #     hydro 4 f 17.6
  #  Further basis functions - improvements: -0.08 meV and below
  #     hydro 3 s 2
  #     hydro 3 p 6
  #     hydro 4 d 20
  ################################################################################
  #
  # For methods that use the localized form of the "resolution of identity" for
  # the two-electron Coulomb operator (RI_method LVL), particularly Hartree-Fock and
  # hybrid density functional calculations, the highest accuracy can be obtained by
  # uncommenting the line beginning with "for_aux"  below, thus adding an extra g radial
  # function to the construction of the product basis set for the expansion.
  # See Ref. New J. Phys. 17, 093020 (2015) for more information, particularly Figs. 1 and 6.
  #
  ################################################################################
  #
  # for_aux hydro 5 g 6.0
  
  -----------------------------------------------------------------------
  Completed first pass over input file control.in .
  -----------------------------------------------------------------------
  
  
  -----------------------------------------------------------------------
  Parsing geometry.in (first pass over file, find array dimensions only).
  The contents of geometry.in will be repeated verbatim below
  unless switched off by setting 'verbatim_writeout .false.' .
  in the first line of geometry.in .
  -----------------------------------------------------------------------
  
  #=======================================================
  # FHI-aims file: geometry.in
  # Created using the Atomic Simulation Environment (ASE)
  # Mon Jul 26 17:53:15 2021
  #=======================================================
  atom 37.7348569999999981 -38.7199299999999980 48.8487930000000006 C
  atom 36.2901480000000021 -38.5086510000000004 48.7984950000000026 C
  atom 38.1760370000000009 -40.1336330000000032 48.8725760000000022 C
  atom 38.6622660000000025 -37.6511080000000007 48.8285160000000005 C
  atom 35.4031280000000024 -39.5634909999999991 48.7699289999999976 C
  atom 35.9104219999999970 -37.4892880000000019 48.7675600000000031 H
  atom 37.2051310000000015 -41.1542960000000022 48.8342650000000020 C
  atom 39.5399659999999997 -40.3759820000000005 48.8252719999999982 C
  atom 38.1154510000000002 -36.2948850000000007 48.7579259999999977 C
  atom 40.0137670000000014 -37.9462770000000020 48.8202939999999970 C
  atom 33.9910420000000002 -39.3087140000000019 48.6824990000000000 C
  atom 35.8567359999999979 -40.9134999999999991 48.8014960000000002 C
  atom 37.5492270000000019 -42.1891829999999999 48.8473019999999991 H
  atom 40.0526040000000023 -41.8036669999999972 48.7494370000000004 C
  atom 40.4782489999999981 -39.3211420000000018 48.8206190000000007 C
  atom 37.5997059999999976 -35.7589210000000008 47.5822999999999965 C
  atom 38.1698220000000035 -35.4715199999999982 49.8941730000000021 C
  atom 40.9908870000000007 -36.9209540000000018 48.7804849999999988 C
  atom 33.0884879999999981 -40.3557860000000019 48.6187850000000026 C
  atom 33.6463520000000003 -38.2779579999999982 48.6747599999999991 H
  atom 34.8889369999999985 -41.9574649999999991 48.7924859999999967 C
  atom 40.3865959999999973 -42.3520589999999970 47.5855990000000020 C
  atom 40.1302769999999995 -42.5819800000000015 49.9233669999999989 C
  atom 41.8794609999999992 -39.5262069999999994 48.7361829999999969 C
  atom 37.5554670000000002 -36.3695790000000017 46.6813080000000014 H
  atom 37.1165829999999985 -34.4570709999999991 47.5761490000000009 C
  atom 37.7348560000000006 -34.1665629999999965 49.8294169999999994 C
  atom 38.5793760000000034 -35.8725809999999967 50.8211140000000015 H
  atom 40.6392230000000012 -35.8880240000000015 48.7734760000000023 H
  atom 42.3408349999999984 -37.1462140000000005 48.7390389999999982 C
  atom 32.0190139999999985 -40.1645710000000022 48.5360870000000020 H
  atom 33.5700580000000031 -41.7026880000000020 48.6444809999999990 C
  atom 35.2446539999999970 -42.9855749999999972 48.8524770000000004 H
  atom 40.3244010000000017 -41.7674390000000031 46.6663210000000035 H
  atom 40.8200089999999989 -43.6772119999999973 47.5136619999999965 C
  atom 39.8476840000000010 -42.1547890000000010 50.8836200000000005 H
  atom 40.5201929999999990 -43.8900440000000032 49.8084770000000034 C
  atom 42.2349150000000009 -40.5569059999999979 48.6967539999999985 H
  atom 42.7773550000000000 -38.5319539999999989 48.7159449999999978 C
  atom 36.6848019999999977 -34.0739599999999996 46.6513070000000027 H
  atom 37.2004689999999982 -33.6678830000000033 48.6889639999999986 C
  atom 37.7981229999999968 -33.5428580000000025 50.7222560000000016 H
  atom 43.3039739999999966 -36.0991420000000005 48.6582179999999980 C
  atom 32.8548370000000034 -42.5228510000000028 48.5847830000000016 H
  atom 41.1089190000000002 -44.0783959999999979 46.5431600000000003 H
  atom 40.8945739999999986 -44.4229010000000031 48.6504770000000022 C
  atom 40.5589939999999984 -44.4944670000000002 50.7180880000000016 H
  atom 44.2003150000000034 -38.7416789999999978 48.5963509999999985 C
  atom 36.8319460000000021 -32.6413889999999967 48.6608220000000031 H
  atom 42.9520690000000016 -35.0697830000000010 48.7074560000000005 H
  atom 44.6166389999999993 -36.3710080000000033 48.5465000000000018 C
  atom 41.2361360000000019 -45.4585969999999975 48.6054400000000015 H
  atom 44.5678699999999992 -39.7661349999999985 48.5724340000000012 H
  atom 45.1013159999999971 -37.6914999999999978 48.4804000000000030 C
  atom 45.3303000000000011 -35.5488319999999973 48.4730660000000029 H
  atom 46.1667569999999969 -37.8837419999999980 48.3667909999999992 H
  
  -----------------------------------------------------------------------
  Completed first pass over input file geometry.in .
  -----------------------------------------------------------------------
  

  Basic array size parameters:
  | Number of species                 :        2
  | Number of atoms                   :       56
  | Max. basis fn. angular momentum   :        4
  | Max. atomic/ionic basis occupied n:        2
  | Max. number of basis fn. types    :        2
  | Max. radial fns per species/type  :        8
  | Max. logarithmic grid size        :     1277
  | Max. radial integration grid size :       69
  | Max. angular integration grid size:      434
  | Max. angular grid division number :        8
  | Radial grid for Hartree potential :     1277
  | Number of spin channels           :        1

------------------------------------------------------------
          Reading file control.in.
------------------------------------------------------------
  XC: Using PBE gradient-corrected functionals.
  Scalar relativistic treatment of kinetic energy: ZORA.
  Threshold value for ZORA:   0.100000E-11
  Occupation type: Gaussian broadening, width =   0.100000E-03 eV.
  Since 'load_balancing .true.' is present in control.in, automatically turning on 'use_local_index .true.'.
  Using load balancing for integrations.
  Kohn-Sham electronic structure solved by the ELSI library.
  Using pulay charge density mixing.
  Pulay mixing - number of memorized iterations:    5
  Charge density mixing - mixing parameter:     0.4000
  Convergence accuracy of total energy:  0.1000E-05
  Convergence accuracy of sum of eigenvalues:  0.1000E-03
  Convergence accuracy of self-consistent charge density:  0.1000E-05
  Maximum number of s.-c. iterations  :   100
  * Ignoring prodbas_threshold
  Threshold for basis singularities:  0.1000E-04
  override_illconditioning: Explicitly overriding any built-in checks for an ill-conditioned overlap matrix.
  *** WARNING: If you use this flag, you should really know what you are doing.
  *** DO NOT keep this flag set by default in all your control.in files.
  Using 1D integrations for auxiliary 2-center integrals.
  Spin treatment: No spin polarisation.
  Charge =   0.000000E+00: Neutral system requested explicitly.
 
  Reading configuration options for species H                   .
  | Found nuclear charge :   1.0000
  | Found atomic mass :    1.00794000000000      amu
  | Found l_max for Hartree potential  :   6
  | Found cutoff potl. onset [A], width [A], scale factor :    4.00000    2.00000    1.00000
  | Threshold for basis-dependent cutoff potential is   0.100000E-03
  | Found data for basic radial integration grid :    24 points, outermost radius =    7.000 A
  | Found multiplier for basic radial grid :   2
  | Found angular grid specification: user-specified.
  | Specified grid contains     6 separate shells.
  | Check grid settings after all constraints further below.
  | Found free-atom valence shell :  1 s   1.000
  | No ionic wave fns used. Skipping ion_occ.
  | Found hydrogenic basis function :  2 s   2.100
  | Found hydrogenic basis function :  2 p   3.500
  | Found hydrogenic basis function :  1 s   0.850
  | Found hydrogenic basis function :  2 p   3.700
  | Found hydrogenic basis function :  2 s   1.200
  | Found hydrogenic basis function :  3 d   7.000
  Species H                   : Missing cutoff potential type.
  Defaulting to exp(1/x)/(1-x)^2 type cutoff potential.
  Species H : No 'logarithmic' tag. Using default grid for free atom:
  | Default logarithmic grid data [bohr] : 0.1000E-03 0.1000E+03 0.1012E+01
  Species H : On-site basis accuracy parameter (for Gram-Schmidt orthonormalisation) not specified.
  Using default value basis_acc =  0.1000000E-03.
  Species H                   : Using default innermost maximum threshold i_radial=  2 for radial functions.
  Species H                   : Default cutoff onset for free atom density etc. : 0.40000000E+01 AA.
  Species H                   : Basic radial grid will be enhanced according to radial_multiplier =   2, to contain    49 grid points.
 
  Reading configuration options for species C                   .
  | Found nuclear charge :   6.0000
  | Found atomic mass :    12.0107000000000      amu
  | Found l_max for Hartree potential  :   6
  | Found cutoff potl. onset [A], width [A], scale factor :    4.00000    2.00000    1.00000
  | Threshold for basis-dependent cutoff potential is   0.100000E-03
  | Found data for basic radial integration grid :    34 points, outermost radius =    7.000 A
  | Found multiplier for basic radial grid :   2
  | Found angular grid specification: user-specified.
  | Specified grid contains     6 separate shells.
  | Check grid settings after all constraints further below.
  | Found free-atom valence shell :  2 s   2.000
  | Found free-atom valence shell :  2 p   2.000
  | No ionic wave fns used. Skipping ion_occ.
  | No ionic wave fns used. Skipping ion_occ.
  | Found hydrogenic basis function :  2 p   1.700
  | Found hydrogenic basis function :  3 d   6.000
  | Found hydrogenic basis function :  2 s   4.900
  | Found hydrogenic basis function :  4 f   9.800
  | Found hydrogenic basis function :  3 p   5.200
  | Found hydrogenic basis function :  3 s   4.300
  | Found hydrogenic basis function :  5 g  14.400
  | Found hydrogenic basis function :  3 d   6.200
  Species C                   : Missing cutoff potential type.
  Defaulting to exp(1/x)/(1-x)^2 type cutoff potential.
  Species C : No 'logarithmic' tag. Using default grid for free atom:
  | Default logarithmic grid data [bohr] : 0.1000E-03 0.1000E+03 0.1012E+01
  Species C : On-site basis accuracy parameter (for Gram-Schmidt orthonormalisation) not specified.
  Using default value basis_acc =  0.1000000E-03.
  Species C                   : Using default innermost maximum threshold i_radial=  2 for radial functions.
  Species C                   : Default cutoff onset for free atom density etc. : 0.40000000E+01 AA.
  Species C                   : Basic radial grid will be enhanced according to radial_multiplier =   2, to contain    69 grid points.
 
  Finished reading input file 'control.in'. Consistency checks are next.
 
  MPI_IN_PLACE appears to work with this MPI implementation.
  | Keeping use_mpi_in_place .true. (see manual).
  Target number of points in a grid batch is not set. Defaulting to  100
  Method for grid partitioning is not set. Defaulting to parallel hash+maxmin partitioning.
  Batch size limit is not set. Defaulting to    200
  By default, will store active basis functions for each batch.
  If in need of memory, prune_basis_once .false. can be used to disable this option.
  communication_type for Hartree potential was not specified.
  Defaulting to calc_hartree .
  Pulay mixer: Number of initial linear mixing iterations not set.
  Defaulting to    0 iterations.
  Work space size for distributed Hartree potential not set.
  Defaulting to   0.200000E+03 MB.
  Algorithm-dependent basis array size parameters:
  | n_max_pulay                         :        5
  Presetting      1001 iterations before the initial mixing cycle
  is restarted anyway using the sc_init_iter criterion / keyword.
  Presetting a factor      1.000 between actual scf density residual
  and density convergence criterion sc_accuracy_rho below which sc_init_iter
  takes no effect.
  Calculation of forces was not defined in control.in. No forces will be calculated.
  Geometry relaxation not requested: no relaxation will be performed.
  No accuracy limit for integral partition fn. given. Defaulting to  0.1000E-14.
  No threshold value for u(r) in integrations given. Defaulting to  0.1000E-05.
  No accuracy for occupation numbers given. Defaulting to  0.1000E-12.
  No threshold value for occupation numbers given. Defaulting to  0.0000E+00.
  No accuracy for fermi level given. Defaulting to  0.1000E-19.
  Maximum # of iterations to find E_F not set. Defaulting to  200.
  Will not use alltoall communication since running on < 1024 CPUs.
  partition_type (choice of integration weights) for integrals was not specified.
  | Using a version of the partition function of Stratmann and coworkers ('stratmann_sparse').
  | At each grid point, the set of atoms used to build the partition table is smoothly restricted to
  | only those atoms whose free-atom density would be non-zero at that grid point.
  Partitioning for Hartree potential was not defined. Using partition_type for integrals.
  | Adjusted default value of keyword multip_moments_threshold to:       0.10000000E-11
  | This value may affect high angular momentum components of the Hartree potential in periodic systems.
  No q(lm)/r^(l+1) cutoff set for long-range Hartree potential.
  | Using default value of  0.100000E-09 .
  | Verify using the multipole_threshold keyword.
  Defaulting to new monopole extrapolation.
  Density update method: automatic selection selected.
 * Warning: use_local_index and/or load_balancing needs packed_matrix_format = index
 * Changing the default setting to packed_matrix_format = index
------------------------------------------------------------


------------------------------------------------------------
          Reading geometry description geometry.in.
------------------------------------------------------------
  Input structure read successfully.
  The structure contains       56 atoms,  and a total of        226.000 electrons.

  Input geometry:
  | No unit cell requested.
  | Atomic structure:
  |       Atom                x [A]            y [A]            z [A]
  |    1: Species C            37.73485700      -38.71993000       48.84879300
  |    2: Species C            36.29014800      -38.50865100       48.79849500
  |    3: Species C            38.17603700      -40.13363300       48.87257600
  |    4: Species C            38.66226600      -37.65110800       48.82851600
  |    5: Species C            35.40312800      -39.56349100       48.76992900
  |    6: Species H            35.91042200      -37.48928800       48.76756000
  |    7: Species C            37.20513100      -41.15429600       48.83426500
  |    8: Species C            39.53996600      -40.37598200       48.82527200
  |    9: Species C            38.11545100      -36.29488500       48.75792600
  |   10: Species C            40.01376700      -37.94627700       48.82029400
  |   11: Species C            33.99104200      -39.30871400       48.68249900
  |   12: Species C            35.85673600      -40.91350000       48.80149600
  |   13: Species H            37.54922700      -42.18918300       48.84730200
  |   14: Species C            40.05260400      -41.80366700       48.74943700
  |   15: Species C            40.47824900      -39.32114200       48.82061900
  |   16: Species C            37.59970600      -35.75892100       47.58230000
  |   17: Species C            38.16982200      -35.47152000       49.89417300
  |   18: Species C            40.99088700      -36.92095400       48.78048500
  |   19: Species C            33.08848800      -40.35578600       48.61878500
  |   20: Species H            33.64635200      -38.27795800       48.67476000
  |   21: Species C            34.88893700      -41.95746500       48.79248600
  |   22: Species C            40.38659600      -42.35205900       47.58559900
  |   23: Species C            40.13027700      -42.58198000       49.92336700
  |   24: Species C            41.87946100      -39.52620700       48.73618300
  |   25: Species H            37.55546700      -36.36957900       46.68130800
  |   26: Species C            37.11658300      -34.45707100       47.57614900
  |   27: Species C            37.73485600      -34.16656300       49.82941700
  |   28: Species H            38.57937600      -35.87258100       50.82111400
  |   29: Species H            40.63922300      -35.88802400       48.77347600
  |   30: Species C            42.34083500      -37.14621400       48.73903900
  |   31: Species H            32.01901400      -40.16457100       48.53608700
  |   32: Species C            33.57005800      -41.70268800       48.64448100
  |   33: Species H            35.24465400      -42.98557500       48.85247700
  |   34: Species H            40.32440100      -41.76743900       46.66632100
  |   35: Species C            40.82000900      -43.67721200       47.51366200
  |   36: Species H            39.84768400      -42.15478900       50.88362000
  |   37: Species C            40.52019300      -43.89004400       49.80847700
  |   38: Species H            42.23491500      -40.55690600       48.69675400
  |   39: Species C            42.77735500      -38.53195400       48.71594500
  |   40: Species H            36.68480200      -34.07396000       46.65130700
  |   41: Species C            37.20046900      -33.66788300       48.68896400
  |   42: Species H            37.79812300      -33.54285800       50.72225600
  |   43: Species C            43.30397400      -36.09914200       48.65821800
  |   44: Species H            32.85483700      -42.52285100       48.58478300
  |   45: Species H            41.10891900      -44.07839600       46.54316000
  |   46: Species C            40.89457400      -44.42290100       48.65047700
  |   47: Species H            40.55899400      -44.49446700       50.71808800
  |   48: Species C            44.20031500      -38.74167900       48.59635100
  |   49: Species H            36.83194600      -32.64138900       48.66082200
  |   50: Species H            42.95206900      -35.06978300       48.70745600
  |   51: Species C            44.61663900      -36.37100800       48.54650000
  |   52: Species H            41.23613600      -45.45859700       48.60544000
  |   53: Species H            44.56787000      -39.76613500       48.57243400
  |   54: Species C            45.10131600      -37.69150000       48.48040000
  |   55: Species H            45.33030000      -35.54883200       48.47306600
  |   56: Species H            46.16675700      -37.88374200       48.36679100
  |

  | The smallest distance between any two atoms is         1.08688961 AA.
  |
  | The first atom of this pair is atom number                     11 .
  | The second atom of this pair is atom number                    20 .

  Number of empty states per atom not set in control.in - providing a guess from actual geometry.
  | Total number of empty states used during s.c.f. cycle:      135
  If you use a very high smearing, use empty_states (per atom!) in control.in to increase this value.

  Structure-dependent array size parameters: 
  | Maximum number of distinct radial functions  :       18
  | Maximum number of basis functions            :     1656
  | Number of Kohn-Sham states (occupied + empty):      248
------------------------------------------------------------

------------------------------------------------------------
          Preparing all fixed parts of the calculation.
------------------------------------------------------------
  Determining machine precision:
    2.225073858507201E-308
  Setting up grids for atomic and cluster calculations.

  Creating wave function, potential, and density for free atoms.

  Species: H

  List of occupied orbitals and eigenvalues:
    n    l              occ      energy [Ha]    energy [eV]
    1    0           1.0000        -0.238386        -6.4868


  Species: C

  List of occupied orbitals and eigenvalues:
    n    l              occ      energy [Ha]    energy [eV]
    1    0           2.0000       -10.049212      -273.4530
    2    0           2.0000        -0.504761       -13.7352
    2    1           2.0000        -0.193631        -5.2690

  Creating fixed part of basis set: Ionic, confined, hydrogenic.
 
  H                    hydrogenic:
 
  List of hydrogenic basis orbitals: 
    n    l      effective z      eigenvalue [eV]  inner max. [A]     outer max. [A]     outer radius [A]   
    2    0         2.100000       -14.9965           0.193243           1.317208           5.373006
    2    1         3.500000       -41.6672           0.602369           0.602369           4.056063
    1    0         0.850000        -9.8292           0.624871           0.624871           5.373006
    2    1         3.700000       -46.5653           0.573622           0.573622           3.910002
    2    0         1.200000        -4.5995           0.334980           2.228188           5.505995
    3    2         7.000000       -74.0753           0.680699           0.680699           3.769201
 
 
  C                    hydrogenic:
 
  List of hydrogenic basis orbitals: 
    n    l      effective z      eigenvalue [eV]  inner max. [A]     outer max. [A]     outer radius [A]   
    2    1         1.700000        -9.8152           1.245706           1.245706           5.401630
    3    2         6.000000       -54.4226           0.792453           0.792453           4.178599
    2    0         4.900000       -81.6681           0.082559           0.562749           3.353238
    4    3         9.800000       -81.6681           0.863254           0.863254           4.028125
    3    1         5.200000       -40.8774           0.305389           1.215618           4.898362
    3    0         4.300000       -27.9508           0.091041           1.610311           5.401630
    5    4        14.400000      -112.8510           0.917666           0.917666           3.883070
    3    2         6.200000       -58.1113           0.763917           0.763917           4.077671
 

  Adding cutoff potential to free-atom effective potential.
  Creating atomic-like basis functions for current effective potential.

  Species H                   :

  List of atomic basis orbitals and eigenvalues:
    n    l      energy [Ha]    energy [eV]    outer radius [A]
    1    0        -0.238386        -6.4868       5.373006


  Species C                   :

  List of atomic basis orbitals and eigenvalues:
    n    l      energy [Ha]    energy [eV]    outer radius [A]
    1    0       -10.049212      -273.4530       1.934409
    2    0        -0.504761       -13.7352       5.271162
    2    1        -0.193631        -5.2690       5.401630

  Assembling full basis from fixed parts.
  | Species H :   atomic orbital   1 s accepted.
  | Species H :    hydro orbital   2 s accepted.
  | Species H :    hydro orbital   1 s accepted.
  | Species H :    hydro orbital   2 s accepted.
  | Species H :    hydro orbital   2 p accepted.
  | Species H :    hydro orbital   2 p accepted.
  | Species H :    hydro orbital   3 d accepted.
  | Species C :   atomic orbital   1 s accepted.
  | Species C :    hydro orbital   2 s accepted.
  | Species C :   atomic orbital   2 s accepted.
  | Species C :    hydro orbital   3 s accepted.
  | Species C :    hydro orbital   3 p accepted.
  | Species C :   atomic orbital   2 p accepted.
  | Species C :    hydro orbital   2 p accepted.
  | Species C :    hydro orbital   3 d accepted.
  | Species C :    hydro orbital   3 d accepted.
  | Species C :    hydro orbital   4 f accepted.
  | Species C :    hydro orbital   5 g accepted.
 
  Basis size parameters after reduction:
  | Total number of radial functions:       18
  | Total number of basis functions :     1656
 
  Per-task memory consumption for arrays in subroutine allocate_ext:
  |           4.452056MB.
  Testing on-site integration grid accuracy.
  |  Species  Function  <phi|h_atom|phi> (log., in eV)  <phi|h_atom|phi> (rad., in eV)
           1        1                 -6.4870767962                 -6.4871688290
           1        2                 13.5032046589                 13.5028982997
           1        3                 32.8195184817                 32.8119941656
           1        4                 33.8513856511                 33.7670005767 ***
           1        5                 28.8544614965                 28.8544615203
           1        6                 59.6326952547                 59.6327656460
           1        7                 60.2719308513                 60.2719305949
           2        8               -273.4529726040               -273.4529710464
           2        9                -10.7721037319                -10.7721022101
           2       10                 17.6044132601                 17.6044162063
           2       11                 53.7706460658                 53.7706913770
           2       12                 15.0973290362                 15.0973256030
           2       13                  3.8545134692                  3.8545724687
           2       14                 12.1156992592                 12.1182024431
           2       15                 29.4352039302                 29.4352041816
           2       16                 54.8741144708                 54.8740268729
           2       17                 59.3556032049                 59.3556031382
           2       18                 93.4551837154                 93.4551838009
 * Note: Onsite integrals marked "***" above are less accurate than
 * onsite_accuracy_threshold =    0.03000 eV. Usually, this is harmless.
 * When in doubt, tighten the "radial" and/or "radial_multiplier" flags to check.

  Preparing densities etc. for the partition functions (integrals / Hartree potential).

  Preparations completed.
  max(cpu_time)          :      0.198 s.
  Wall clock time (cpu1) :      0.186 s.
------------------------------------------------------------

------------------------------------------------------------
          Begin self-consistency loop: Initialization.

          Date     :  20210727, Time     :  231950.877
------------------------------------------------------------

  Initializing index lists of integration centers etc. from given atomic structure:
  | Number of centers in hartree potential         :        56
  | Number of centers in hartree multipole         :        56
  | Number of centers in electron density summation:        56
  | Number of centers in basis integrals           :        56
  | Number of centers in integrals                 :        56
  | Number of centers in hamiltonian               :        56
  * Using 56 tasks for Scalapack Eigenvalue solver.
  Detailed listing of tasks and assigned k-points:
  (for non-periodic systems, the "k-point" denotes an internal label only)
   Task     0 k-point     1 on d018
   Task     1 k-point     1 on d018
   Task     2 k-point     1 on d018
   Task     3 k-point     1 on d018
   Task     4 k-point     1 on d018
   Task     5 k-point     1 on d018
   Task     6 k-point     1 on d018
   Task     7 k-point     1 on d018
   Task     8 k-point     1 on d018
   Task     9 k-point     1 on d018
   Task    10 k-point     1 on d018
   Task    11 k-point     1 on d018
   Task    12 k-point     1 on d018
   Task    13 k-point     1 on d018
   Task    14 k-point     1 on d018
   Task    15 k-point     1 on d018
   Task    16 k-point     1 on d018
   Task    17 k-point     1 on d018
   Task    18 k-point     1 on d018
   Task    19 k-point     1 on d018
   Task    20 k-point     1 on d018
   Task    21 k-point     1 on d018
   Task    22 k-point     1 on d018
   Task    23 k-point     1 on d018
   Task    24 k-point     1 on d018
   Task    25 k-point     1 on d018
   Task    26 k-point     1 on d018
   Task    27 k-point     1 on d018
   Task    28 k-point     1 on d018
   Task    29 k-point     1 on d018
   Task    30 k-point     1 on d018
   Task    31 k-point     1 on d018
   Task    32 k-point     1 on d018
   Task    33 k-point     1 on d018
   Task    34 k-point     1 on d018
   Task    35 k-point     1 on d018
   Task    36 k-point     1 on d018
   Task    37 k-point     1 on d018
   Task    38 k-point     1 on d018
   Task    39 k-point     1 on d018
   Task    40 k-point     1 on d018
   Task    41 k-point     1 on d018
   Task    42 k-point     1 on d018
   Task    43 k-point     1 on d018
   Task    44 k-point     1 on d018
   Task    45 k-point     1 on d018
   Task    46 k-point     1 on d018
   Task    47 k-point     1 on d018
   Task    48 k-point     1 on d018
   Task    49 k-point     1 on d018
   Task    50 k-point     1 on d018
   Task    51 k-point     1 on d018
   Task    52 k-point     1 on d018
   Task    53 k-point     1 on d018
   Task    54 k-point     1 on d018
   Task    55 k-point     1 on d018
  Tasks:    56 split into      8 X      7 BLACS grid
  Calculating block size based on n_basis =         1656 max_nprow =            8 max_npcol =            7
  ScaLAPACK block size set to:           16
  Allocating        0.399 MB for ovlp
  Allocating        0.399 MB for ham
  Allocating        0.399 MB for eigenvec
  Required Scalapack workspace - INTEGER:            1 REAL:             1
  Partitioning the integration grid into batches with parallel hashing+maxmin method.
  | Number of batches:     8154
  | Maximal batch size:     200
  | Minimal batch size:       4
  | Average batch size:     114.367
  | Standard deviation of batch sizes:      39.607

  Integration load balanced across     56 MPI tasks.
  Work distribution over tasks is as follows:
  Task      0 has      16862 integration points.
  Task      1 has      16732 integration points.
  Task      2 has      16525 integration points.
  Task      3 has      16717 integration points.
  Task      4 has      16581 integration points.
  Task      5 has      16614 integration points.
  Task      6 has      16600 integration points.
  Task      7 has      16833 integration points.
  Task      8 has      16671 integration points.
  Task      9 has      16541 integration points.
  Task     10 has      16674 integration points.
  Task     11 has      16646 integration points.
  Task     12 has      16689 integration points.
  Task     13 has      16543 integration points.
  Task     14 has      16699 integration points.
  Task     15 has      16684 integration points.
  Task     16 has      16659 integration points.
  Task     17 has      16812 integration points.
  Task     18 has      16551 integration points.
  Task     19 has      16650 integration points.
  Task     20 has      16631 integration points.
  Task     21 has      16657 integration points.
  Task     22 has      16774 integration points.
  Task     23 has      16522 integration points.
  Task     24 has      16738 integration points.
  Task     25 has      16599 integration points.
  Task     26 has      16594 integration points.
  Task     27 has      16507 integration points.
  Task     28 has      16719 integration points.
  Task     29 has      16734 integration points.
  Task     30 has      16648 integration points.
  Task     31 has      16808 integration points.
  Task     32 has      16538 integration points.
  Task     33 has      16675 integration points.
  Task     34 has      16484 integration points.
  Task     35 has      16728 integration points.
  Task     36 has      16722 integration points.
  Task     37 has      16539 integration points.
  Task     38 has      16696 integration points.
  Task     39 has      16630 integration points.
  Task     40 has      16631 integration points.
  Task     41 has      16572 integration points.
  Task     42 has      16724 integration points.
  Task     43 has      16676 integration points.
  Task     44 has      16620 integration points.
  Task     45 has      16740 integration points.
  Task     46 has      16706 integration points.
  Task     47 has      16582 integration points.
  Task     48 has      16570 integration points.
  Task     49 has      16716 integration points.
  Task     50 has      16683 integration points.
  Task     51 has      16609 integration points.
  Task     52 has      16791 integration points.
  Task     53 has      16531 integration points.
  Task     54 has      16681 integration points.
  Task     55 has      16494 integration points.
  Initializing partition tables, free-atom densities, potentials, etc. across the integration grid (initialize_grid_storage).
  | initialize_grid_storage: Actual outermost partition radius vs. multipole_radius_free
  | (-- VB: in principle, multipole_radius_free should be larger, hence this output)
  | Species        1: Confinement radius =              6.000000000000000 AA, multipole_radius_free =              6.071692442739658 AA.
  | Species        1: outer_partition_radius set to              6.071692442739658 AA .
  | Species        2: Confinement radius =              6.000000000000000 AA, multipole_radius_free =              6.029870734432609 AA.
  | Species        2: outer_partition_radius set to              6.029870734432609 AA .
  | The sparse table of interatomic distances needs     37.1880 kbyte instead of    25.0880 kbyte of memory.
  | Using the partition_type stratmann_smoother will reduce your memory usage.
  | Net number of integration points:   932552
  | of which are non-zero points    :   737158
  Renormalizing the initial density to the exact electron count on the 3D integration grid.
  | Initial density: Formal number of electrons (from input files) :     226.0000000000
  | Integrated number of electrons on 3D grid     :     225.9995482057
  | Charge integration error                      :      -0.0004517943
  | Normalization factor for density and gradient :       1.0000019991
  Obtaining max. number of non-zero basis functions in each batch (get_n_compute_maxes).
  | Maximal number of non-zero basis functions:     1029
  Selecting the method for density update.
  Loop over occupied states selected for charge density update.
  Hamiltonian matrix size:
  | Size of matrix non-packed:               1371996
  | Size of matrix packed:         1186086
  Allocating        3.286 MB for KS_eigenvector
  use_local_index: Max. local matrix size =       841551
  Task:     0 matrix size:     117849
  Task:     1 matrix size:     189826
  Task:     2 matrix size:     236617
  Task:     3 matrix size:     404374
  Task:     4 matrix size:     539822
  Task:     5 matrix size:     834912
  Task:     6 matrix size:     841551
  Task:     7 matrix size:     154634
  Task:     8 matrix size:     298147
  Task:     9 matrix size:     286612
  Task:    10 matrix size:     545253
  Task:    11 matrix size:     531211
  Task:    12 matrix size:     827402
  Task:    13 matrix size:     829465
  Task:    14 matrix size:     413902
  Task:    15 matrix size:     719070
  Task:    16 matrix size:     786915
  Task:    17 matrix size:     292233
  Task:    18 matrix size:     108335
  Task:    19 matrix size:     359719
  Task:    20 matrix size:     212170
  Task:    21 matrix size:     547874
  Task:    22 matrix size:     468705
  Task:    23 matrix size:     167849
  Task:    24 matrix size:     752008
  Task:    25 matrix size:     662559
  Task:    26 matrix size:     247291
  Task:    27 matrix size:     214185
  Task:    28 matrix size:     213496
  Task:    29 matrix size:     662898
  Task:    30 matrix size:     727876
  Task:    31 matrix size:     247569
  Task:    32 matrix size:     264871
  Task:    33 matrix size:     566260
  Task:    34 matrix size:     371636
  Task:    35 matrix size:     241743
  Task:    36 matrix size:     195000
  Task:    37 matrix size:     204855
  Task:    38 matrix size:     749685
  Task:    39 matrix size:     664832
  Task:    40 matrix size:     577605
  Task:    41 matrix size:     394655
  Task:    42 matrix size:     802492
  Task:    43 matrix size:     650886
  Task:    44 matrix size:     483354
  Task:    45 matrix size:     307994
  Task:    46 matrix size:     106030
  Task:    47 matrix size:     225330
  Task:    48 matrix size:      85078
  Task:    49 matrix size:     779826
  Task:    50 matrix size:     629715
  Task:    51 matrix size:     434824
  Task:    52 matrix size:     468518
  Task:    53 matrix size:     178985
  Task:    54 matrix size:     312262
  Task:    55 matrix size:     123206
  Integrating Hamiltonian matrix: batch-based integration.
  Time summed over all CPUs for integration: real work      167.734 s, elapsed      310.666 s
  Time get_set_sparse_local_matrix_scalapack:     0.016303 s
  Start compute_balanced_batch_distribution
  Done load balancing, time needed:      0.008 s
  Integrating overlap matrix with loadbalancing
  Time summed over all CPUs for integration: real work       47.199 s, elapsed       54.487 s
  Time get_set_full_local_matrix_scalapack:     0.018488 s

  Updating Kohn-Sham eigenvalues and eigenvectors using ELSI and the ELPA eigensolver.
  Overlap matrix is not singular
  | Lowest and highest eigenvalues :  0.12E+02,  0.83E-04
  Finished singularity check of overlap matrix
  | Time :     0.112 s
  Finished Cholesky decomposition
  | Time :     0.024 s
  Finished transformation to standard eigenproblem
  | Time :     0.018 s
  Starting ELPA eigensolver
  Finished solving standard eigenproblem
  | Time :     0.112 s
  Finished back-transformation of eigenvectors
  | Time :     0.005 s

  Obtaining occupation numbers and chemical potential using ELSI.
  | Chemical potential (Fermi level):    -8.30982827 eV
  Writing Kohn-Sham eigenvalues.

  State    Occupation    Eigenvalue [Ha]    Eigenvalue [eV]
      1       2.00000         -10.186307         -277.18352
      2       2.00000         -10.184823         -277.14314
      3       2.00000         -10.180901         -277.03641
      4       2.00000         -10.180464         -277.02451
      5       2.00000         -10.178768         -276.97837
      6       2.00000         -10.175439         -276.88778
      7       2.00000         -10.175370         -276.88591
      8       2.00000         -10.175239         -276.88234
      9       2.00000         -10.175030         -276.87666
     10       2.00000         -10.173480         -276.83446
     11       2.00000         -10.172704         -276.81337
     12       2.00000         -10.172192         -276.79943
     13       2.00000         -10.171982         -276.79371
     14       2.00000         -10.171519         -276.78112
     15       2.00000         -10.171406         -276.77805
     16       2.00000         -10.171376         -276.77722
     17       2.00000         -10.171339         -276.77621
     18       2.00000         -10.171276         -276.77451
     19       2.00000         -10.171196         -276.77232
     20       2.00000         -10.170677         -276.75820
     21       2.00000         -10.168954         -276.71132
     22       2.00000         -10.168630         -276.70250
     23       2.00000         -10.168262         -276.69250
     24       2.00000         -10.167560         -276.67339
     25       2.00000         -10.167366         -276.66811
     26       2.00000         -10.165954         -276.62967
     27       2.00000         -10.165942         -276.62935
     28       2.00000         -10.165467         -276.61643
     29       2.00000         -10.164425         -276.58809
     30       2.00000         -10.163992         -276.57630
     31       2.00000         -10.163589         -276.56532
     32       2.00000         -10.163106         -276.55217
     33       2.00000         -10.160534         -276.48221
     34       2.00000         -10.153923         -276.30230
     35       2.00000          -1.022899          -27.83450
     36       2.00000          -1.014881          -27.61631
     37       2.00000          -1.005548          -27.36235
     38       2.00000          -1.003874          -27.31679
     39       2.00000          -0.981784          -26.71570
     40       2.00000          -0.952322          -25.91400
     41       2.00000          -0.942553          -25.64817
     42       2.00000          -0.927195          -25.23027
     43       2.00000          -0.912098          -24.81944
     44       2.00000          -0.907760          -24.70140
     45       2.00000          -0.901953          -24.54339
     46       2.00000          -0.890998          -24.24530
     47       2.00000          -0.889441          -24.20292
     48       2.00000          -0.875529          -23.82435
     49       2.00000          -0.871193          -23.70635
     50       2.00000          -0.859558          -23.38977
     51       2.00000          -0.833088          -22.66949
     52       2.00000          -0.808932          -22.01216
     53       2.00000          -0.776443          -21.12808
     54       2.00000          -0.773779          -21.05561
     55       2.00000          -0.764600          -20.80582
     56       2.00000          -0.761424          -20.71941
     57       2.00000          -0.753299          -20.49830
     58       2.00000          -0.746825          -20.32214
     59       2.00000          -0.734156          -19.97741
     60       2.00000          -0.728889          -19.83409
     61       2.00000          -0.715907          -19.48082
     62       2.00000          -0.711088          -19.34968
     63       2.00000          -0.679255          -18.48347
     64       2.00000          -0.669443          -18.21647
     65       2.00000          -0.668794          -18.19880
     66       2.00000          -0.665058          -18.09715
     67       2.00000          -0.650220          -17.69338
     68       2.00000          -0.644680          -17.54264
     69       2.00000          -0.637180          -17.33855
     70       2.00000          -0.636150          -17.31052
     71       2.00000          -0.632541          -17.21232
     72       2.00000          -0.616767          -16.78308
     73       2.00000          -0.611818          -16.64841
     74       2.00000          -0.599778          -16.32078
     75       2.00000          -0.593215          -16.14219
     76       2.00000          -0.581356          -15.81951
     77       2.00000          -0.578836          -15.75092
     78       2.00000          -0.577235          -15.70737
     79       2.00000          -0.576646          -15.69132
     80       2.00000          -0.571757          -15.55830
     81       2.00000          -0.571173          -15.54240
     82       2.00000          -0.566399          -15.41250
     83       2.00000          -0.566250          -15.40844
     84       2.00000          -0.560025          -15.23906
     85       2.00000          -0.559075          -15.21321
     86       2.00000          -0.556147          -15.13353
     87       2.00000          -0.532734          -14.49644
     88       2.00000          -0.528078          -14.36973
     89       2.00000          -0.525452          -14.29829
     90       2.00000          -0.520920          -14.17496
     91       2.00000          -0.517460          -14.08081
     92       2.00000          -0.515858          -14.03722
     93       2.00000          -0.510846          -13.90084
     94       2.00000          -0.510294          -13.88580
     95       2.00000          -0.504566          -13.72994
     96       2.00000          -0.502815          -13.68228
     97       2.00000          -0.499551          -13.59348
     98       2.00000          -0.494437          -13.45432
     99       2.00000          -0.489712          -13.32574
    100       2.00000          -0.481658          -13.10658
    101       2.00000          -0.471542          -12.83132
    102       2.00000          -0.459895          -12.51437
    103       2.00000          -0.445869          -12.13271
    104       2.00000          -0.432196          -11.76064
    105       2.00000          -0.425093          -11.56738
    106       2.00000          -0.421055          -11.45748
    107       2.00000          -0.410062          -11.15837
    108       2.00000          -0.405899          -11.04506
    109       2.00000          -0.404118          -10.99660
    110       2.00000          -0.399835          -10.88008
    111       2.00000          -0.388880          -10.58197
    112       2.00000          -0.368479          -10.02683
    113       2.00000          -0.333013           -9.06173
    114       0.00000          -0.284918           -7.75301
    115       0.00000          -0.241024           -6.55860
    116       0.00000          -0.224503           -6.10903
    117       0.00000          -0.217074           -5.90690
    118       0.00000          -0.215427           -5.86208
    119       0.00000          -0.209944           -5.71286
    120       0.00000          -0.205055           -5.57984
    121       0.00000          -0.199795           -5.43670
    122       0.00000          -0.179620           -4.88771
    123       0.00000          -0.171777           -4.67428
    124       0.00000          -0.158540           -4.31409
    125       0.00000          -0.128099           -3.48575
    126       0.00000          -0.080083           -2.17917
    127       0.00000          -0.078742           -2.14268
    128       0.00000          -0.072747           -1.97954
    129       0.00000          -0.070781           -1.92605
    130       0.00000          -0.066215           -1.80179
    131       0.00000          -0.064689           -1.76029
    132       0.00000          -0.064302           -1.74974
    133       0.00000          -0.061533           -1.67440
    134       0.00000          -0.047827           -1.30143
    135       0.00000          -0.043162           -1.17450
    136       0.00000          -0.040317           -1.09708
    137       0.00000          -0.037029           -1.00760
    138       0.00000          -0.035341           -0.96168
    139       0.00000          -0.033851           -0.92113
    140       0.00000          -0.028849           -0.78501
    141       0.00000          -0.025401           -0.69119
    142       0.00000          -0.022868           -0.62227
    143       0.00000          -0.020159           -0.54856
    144       0.00000          -0.015458           -0.42063
    145       0.00000          -0.011604           -0.31577
    146       0.00000          -0.010878           -0.29600
    147       0.00000          -0.010111           -0.27513
    148       0.00000          -0.003974           -0.10814
    149       0.00000          -0.002722           -0.07408
    150       0.00000          -0.001227           -0.03339
    151       0.00000           0.004840            0.13172
    152       0.00000           0.006572            0.17884
    153       0.00000           0.008080            0.21986
    154       0.00000           0.012466            0.33922
    155       0.00000           0.014062            0.38264
    156       0.00000           0.026162            0.71190
    157       0.00000           0.030035            0.81730
    158       0.00000           0.034086            0.92752
    159       0.00000           0.037934            1.03224
    160       0.00000           0.042939            1.16842
    161       0.00000           0.045270            1.23186
    162       0.00000           0.046690            1.27050
    163       0.00000           0.049140            1.33718
    164       0.00000           0.052907            1.43967
    165       0.00000           0.053517            1.45627
    166       0.00000           0.053942            1.46784
    167       0.00000           0.056559            1.53905
    168       0.00000           0.057379            1.56136
    169       0.00000           0.063937            1.73981
    170       0.00000           0.065886            1.79285
    171       0.00000           0.067177            1.82798
    172       0.00000           0.069971            1.90400
    173       0.00000           0.073417            1.99778
    174       0.00000           0.074273            2.02108
    175       0.00000           0.075508            2.05469
    176       0.00000           0.077125            2.09868
    177       0.00000           0.078161            2.12687
    178       0.00000           0.079761            2.17042
    179       0.00000           0.083676            2.27695
    180       0.00000           0.086001            2.34019
    181       0.00000           0.091171            2.48088
    182       0.00000           0.091628            2.49334
    183       0.00000           0.096088            2.61470
    184       0.00000           0.100800            2.74290
    185       0.00000           0.102129            2.77907
    186       0.00000           0.105973            2.88368
    187       0.00000           0.107716            2.93109
    188       0.00000           0.109222            2.97208
    189       0.00000           0.110555            3.00836
    190       0.00000           0.112275            3.05515
    191       0.00000           0.112730            3.06753
    192       0.00000           0.117075            3.18577
    193       0.00000           0.118559            3.22614
    194       0.00000           0.120724            3.28507
    195       0.00000           0.121515            3.30660
    196       0.00000           0.123554            3.36207
    197       0.00000           0.125345            3.41082
    198       0.00000           0.126043            3.42981
    199       0.00000           0.129796            3.53193
    200       0.00000           0.130767            3.55835
    201       0.00000           0.134708            3.66560
    202       0.00000           0.137656            3.74581
    203       0.00000           0.139799            3.80411
    204       0.00000           0.143396            3.90201
    205       0.00000           0.145417            3.95699
    206       0.00000           0.149351            4.06404
    207       0.00000           0.152259            4.14318
    208       0.00000           0.155450            4.23001
    209       0.00000           0.157857            4.29550
    210       0.00000           0.161011            4.38132
    211       0.00000           0.162184            4.41325
    212       0.00000           0.164889            4.48685
    213       0.00000           0.166291            4.52502
    214       0.00000           0.168048            4.57282
    215       0.00000           0.174132            4.73836
    216       0.00000           0.174749            4.75517
    217       0.00000           0.177757            4.83701
    218       0.00000           0.178700            4.86268
    219       0.00000           0.178945            4.86935
    220       0.00000           0.180760            4.91872
    221       0.00000           0.182904            4.97706
    222       0.00000           0.188362            5.12559
    223       0.00000           0.195709            5.32552
    224       0.00000           0.197758            5.38127
    225       0.00000           0.199128            5.41855
    226       0.00000           0.201354            5.47911
    227       0.00000           0.202693            5.51556
    228       0.00000           0.204575            5.56677
    229       0.00000           0.206383            5.61597
    230       0.00000           0.209208            5.69283
    231       0.00000           0.211656            5.75946
    232       0.00000           0.215436            5.86231
    233       0.00000           0.217555            5.91998
    234       0.00000           0.218694            5.95095
    235       0.00000           0.222709            6.06021
    236       0.00000           0.226433            6.16157
    237       0.00000           0.228634            6.22145
    238       0.00000           0.233429            6.35192
    239       0.00000           0.236809            6.44389
    240       0.00000           0.237903            6.47367
    241       0.00000           0.240454            6.54310
    242       0.00000           0.243269            6.61967
    243       0.00000           0.244580            6.65537
    244       0.00000           0.248940            6.77401
    245       0.00000           0.251297            6.83815
    246       0.00000           0.254715            6.93114
    247       0.00000           0.262897            7.15378
    248       0.00000           0.266243            7.24485

  Highest occupied state (VBM) at     -9.06173478 eV
  | Occupation number:      2.00000000

  Lowest unoccupied state (CBM) at    -7.75300757 eV
  | Occupation number:      0.00000000

  Overall HOMO-LUMO gap:      1.30872721 eV.
  Calculating total energy contributions from superposition of free atom densities.

  Total energy components:
  | Sum of eigenvalues            :        -793.89464355 Ha      -21602.97239817 eV
  | XC energy correction          :        -187.94934547 Ha       -5114.36190598 eV
  | XC potential correction       :         241.42161881 Ha        6569.41649619 eV
  | Free-atom electrostatic energy:        -569.54382602 Ha      -15498.07603956 eV
  | Hartree energy correction     :           0.00000000 Ha           0.00000000 eV
  | Entropy correction            :           0.00000000 Ha           0.00000000 eV
  | ---------------------------
  | Total energy                  :       -1309.96619623 Ha      -35645.99384754 eV
  | Total energy, T -> 0          :       -1309.96619623 Ha      -35645.99384754 eV  <-- do not rely on this value for anything but (periodic) metals
  | Electronic free energy        :       -1309.96619623 Ha      -35645.99384754 eV

  Derived energy quantities:
  | Kinetic energy                :        1297.53608462 Ha       35307.75330124 eV
  | Electrostatic energy          :       -2419.55293538 Ha      -65839.38524279 eV
  | Energy correction for multipole
  | error in Hartree potential    :           0.00000000 Ha           0.00000000 eV
  | Sum of eigenvalues per atom                           :        -385.76736425 eV
  | Total energy (T->0) per atom                          :        -636.53560442 eV  <-- do not rely on this value for anything but (periodic) metals
  | Electronic free energy per atom                       :        -636.53560442 eV
  Initialize hartree_potential_storage
  Max. number of atoms included in rho_multipole:           56

  End scf initialization - timings             :  max(cpu_time)    wall_clock(cpu1)
  | Time for scf. initialization               :        8.920 s           8.999 s
  | Boundary condition initialization          :        0.001 s           0.004 s
  | Integration                                :        6.581 s           6.590 s
  | Solution of K.-S. eqns.                    :        0.290 s           0.312 s
  | Grid partitioning                          :        0.962 s           0.968 s
  | Preloading free-atom quantities on grid    :        0.014 s           0.017 s
  | Free-atom superposition energy             :        0.079 s           0.080 s
  | Total energy evaluation                    :        0.001 s           0.004 s

  Partial memory accounting:
  | Current value for overall tracked memory usage on task 0  :           4.956 MB
  | Peak value for overall tracked memory usage on task 0     :          29.212 MB after allocating zora_vector2
  | Largest tracked array allocation on task 0 so far         :           8.471 MB  when allocating hamiltonian_shell
  Note:  These values currently only include a subset of arrays which are explicitly tracked.
  The "true" memory usage will be greater.
------------------------------------------------------------

------------------------------------------------------------
          Begin self-consistency iteration #    1

  Date     :  20210727, Time     :  231959.880
------------------------------------------------------------
  Evaluating new KS density.
  Integration grid: deviation in total charge (<rho> - N_e) =   2.842171E-14
  Pulay mixing of updated and previous charge densities.

  Evaluating partitioned Hartree potential by multipole expansion.
  | Analytical far-field extrapolation by fixed multipoles:
  | Hartree multipole sum: apparent total charge =  -0.463437E-03
  Summing up the Hartree potential with load balancing.
  Time summed over all CPUs for potential: real work       32.740 s, elapsed       54.669 s
  | RMS charge density error from multipole expansion :   0.140024E-01

  Start compute_balanced_batch_distribution
  Done load balancing, time needed:      0.007 s
  Integrating Hamiltonian matrix: batch-based integration with load balancing
  Time summed over all CPUs for integration: real work      185.382 s, elapsed      205.768 s
  Time get_set_full_local_matrix_scalapack:     0.018790 s
  Start compute_balanced_batch_distribution
  Done load balancing, time needed:      0.008 s

  Updating Kohn-Sham eigenvalues and eigenvectors using ELSI and the ELPA eigensolver.
  Finished transformation to standard eigenproblem
  | Time :     0.021 s
  Starting ELPA eigensolver
  Finished solving standard eigenproblem
  | Time :     0.112 s
  Finished back-transformation of eigenvectors
  | Time :     0.005 s

  Obtaining occupation numbers and chemical potential using ELSI.
  | Chemical potential (Fermi level):    -4.86752689 eV
  Writing Kohn-Sham eigenvalues.

  State    Occupation    Eigenvalue [Ha]    Eigenvalue [eV]
      1       2.00000          -9.995213         -271.98360
      2       2.00000          -9.992702         -271.91526
      3       2.00000          -9.986418         -271.74425
      4       2.00000          -9.985682         -271.72424
      5       2.00000          -9.984980         -271.70512
      6       2.00000          -9.981220         -271.60283
      7       2.00000          -9.974121         -271.40964
      8       2.00000          -9.969655         -271.28812
      9       2.00000          -9.963467         -271.11972
     10       2.00000          -9.962034         -271.08073
     11       2.00000          -9.961433         -271.06437
     12       2.00000          -9.960927         -271.05060
     13       2.00000          -9.960743         -271.04560
     14       2.00000          -9.951825         -270.80295
     15       2.00000          -9.950434         -270.76508
     16       2.00000          -9.950127         -270.75672
     17       2.00000          -9.949463         -270.73867
     18       2.00000          -9.949090         -270.72851
     19       2.00000          -9.949069         -270.72794
     20       2.00000          -9.948122         -270.70216
     21       2.00000          -9.947827         -270.69415
     22       2.00000          -9.946696         -270.66337
     23       2.00000          -9.946459         -270.65691
     24       2.00000          -9.944115         -270.59312
     25       2.00000          -9.943555         -270.57790
     26       2.00000          -9.942354         -270.54521
     27       2.00000          -9.941147         -270.51237
     28       2.00000          -9.940791         -270.50270
     29       2.00000          -9.939235         -270.46034
     30       2.00000          -9.938677         -270.44517
     31       2.00000          -9.937868         -270.42315
     32       2.00000          -9.936473         -270.38519
     33       2.00000          -9.932372         -270.27359
     34       2.00000          -9.931501         -270.24989
     35       2.00000          -0.878447          -23.90375
     36       2.00000          -0.851507          -23.17069
     37       2.00000          -0.850683          -23.14826
     38       2.00000          -0.843957          -22.96525
     39       2.00000          -0.829504          -22.57195
     40       2.00000          -0.800859          -21.79248
     41       2.00000          -0.797786          -21.70886
     42       2.00000          -0.772266          -21.01442
     43       2.00000          -0.763338          -20.77149
     44       2.00000          -0.753972          -20.51663
     45       2.00000          -0.745720          -20.29206
     46       2.00000          -0.736313          -20.03609
     47       2.00000          -0.734663          -19.99119
     48       2.00000          -0.727557          -19.79784
     49       2.00000          -0.720072          -19.59416
     50       2.00000          -0.711787          -19.36872
     51       2.00000          -0.681846          -18.55398
     52       2.00000          -0.663661          -18.05913
     53       2.00000          -0.629752          -17.13643
     54       2.00000          -0.627999          -17.08872
     55       2.00000          -0.618523          -16.83087
     56       2.00000          -0.613364          -16.69047
     57       2.00000          -0.609715          -16.59120
     58       2.00000          -0.599395          -16.31036
     59       2.00000          -0.596880          -16.24193
     60       2.00000          -0.592450          -16.12137
     61       2.00000          -0.571458          -15.55017
     62       2.00000          -0.569604          -15.49973
     63       2.00000          -0.537728          -14.63232
     64       2.00000          -0.534040          -14.53196
     65       2.00000          -0.532418          -14.48783
     66       2.00000          -0.528027          -14.36834
     67       2.00000          -0.516800          -14.06285
     68       2.00000          -0.494760          -13.46309
     69       2.00000          -0.491458          -13.37326
     70       2.00000          -0.479457          -13.04670
     71       2.00000          -0.475223          -12.93147
     72       2.00000          -0.473497          -12.88450
     73       2.00000          -0.470823          -12.81173
     74       2.00000          -0.465880          -12.67723
     75       2.00000          -0.459680          -12.50854
     76       2.00000          -0.457732          -12.45553
     77       2.00000          -0.447459          -12.17597
     78       2.00000          -0.446629          -12.15338
     79       2.00000          -0.438078          -11.92071
     80       2.00000          -0.433451          -11.79481
     81       2.00000          -0.432709          -11.77462
     82       2.00000          -0.431228          -11.73430
     83       2.00000          -0.427651          -11.63699
     84       2.00000          -0.426725          -11.61178
     85       2.00000          -0.422273          -11.49062
     86       2.00000          -0.418741          -11.39453
     87       2.00000          -0.412261          -11.21820
     88       2.00000          -0.395461          -10.76104
     89       2.00000          -0.393686          -10.71273
     90       2.00000          -0.390992          -10.63945
     91       2.00000          -0.380081          -10.34252
     92       2.00000          -0.376284          -10.23921
     93       2.00000          -0.374100          -10.17979
     94       2.00000          -0.373906          -10.17449
     95       2.00000          -0.371312          -10.10392
     96       2.00000          -0.365138           -9.93590
     97       2.00000          -0.362257           -9.85753
     98       2.00000          -0.357692           -9.73330
     99       2.00000          -0.356696           -9.70618
    100       2.00000          -0.346576           -9.43081
    101       2.00000          -0.336475           -9.15595
    102       2.00000          -0.332960           -9.06031
    103       2.00000          -0.323502           -8.80293
    104       2.00000          -0.305851           -8.32262
    105       2.00000          -0.297861           -8.10520
    106       2.00000          -0.283179           -7.70570
    107       2.00000          -0.279917           -7.61692
    108       2.00000          -0.276099           -7.51303
    109       2.00000          -0.272390           -7.41210
    110       2.00000          -0.271588           -7.39029
    111       2.00000          -0.265587           -7.22700
    112       2.00000          -0.241922           -6.58304
    113       2.00000          -0.206703           -5.62469
    114       0.00000          -0.161292           -4.38898
    115       0.00000          -0.115684           -3.14793
    116       0.00000          -0.100490           -2.73447
    117       0.00000          -0.090021           -2.44959
    118       0.00000          -0.088283           -2.40231
    119       0.00000          -0.083399           -2.26941
    120       0.00000          -0.076853           -2.09127
    121       0.00000          -0.073329           -1.99538
    122       0.00000          -0.052919           -1.44000
    123       0.00000          -0.049750           -1.35377
    124       0.00000          -0.041580           -1.13145
    125       0.00000          -0.030748           -0.83669
    126       0.00000          -0.026546           -0.72235
    127       0.00000          -0.019630           -0.53417
    128       0.00000          -0.017338           -0.47180
    129       0.00000          -0.005453           -0.14838
    130       0.00000          -0.003667           -0.09979
    131       0.00000          -0.002519           -0.06854
    132       0.00000           0.000191            0.00520
    133       0.00000           0.000725            0.01973
    134       0.00000           0.001446            0.03934
    135       0.00000           0.014101            0.38371
    136       0.00000           0.014520            0.39512
    137       0.00000           0.015247            0.41489
    138       0.00000           0.024410            0.66423
    139       0.00000           0.027404            0.74569
    140       0.00000           0.030362            0.82620
    141       0.00000           0.033560            0.91322
    142       0.00000           0.037359            1.01658
    143       0.00000           0.040855            1.11173
    144       0.00000           0.049048            1.33467
    145       0.00000           0.050740            1.38069
    146       0.00000           0.051291            1.39569
    147       0.00000           0.056881            1.54782
    148       0.00000           0.062882            1.71112
    149       0.00000           0.067204            1.82871
    150       0.00000           0.072274            1.96668
    151       0.00000           0.073514            2.00043
    152       0.00000           0.081047            2.20540
    153       0.00000           0.087349            2.37690
    154       0.00000           0.090628            2.46612
    155       0.00000           0.095750            2.60549
    156       0.00000           0.098603            2.68313
    157       0.00000           0.101575            2.76399
    158       0.00000           0.103744            2.82303
    159       0.00000           0.106364            2.89432
    160       0.00000           0.109905            2.99067
    161       0.00000           0.110260            3.00033
    162       0.00000           0.111829            3.04303
    163       0.00000           0.115584            3.14521
    164       0.00000           0.121717            3.31209
    165       0.00000           0.126057            3.43017
    166       0.00000           0.128481            3.49613
    167       0.00000           0.129193            3.51551
    168       0.00000           0.131178            3.56953
    169       0.00000           0.133041            3.62024
    170       0.00000           0.138177            3.75998
    171       0.00000           0.138788            3.77661
    172       0.00000           0.139573            3.79798
    173       0.00000           0.140899            3.83407
    174       0.00000           0.142760            3.88470
    175       0.00000           0.143644            3.90876
    176       0.00000           0.148775            4.04837
    177       0.00000           0.149192            4.05972
    178       0.00000           0.154476            4.20352
    179       0.00000           0.158368            4.30942
    180       0.00000           0.158913            4.32424
[...]
     78       2.00000          -0.387593          -10.54695
     79       2.00000          -0.378793          -10.30749
     80       2.00000          -0.377284          -10.26641
     81       2.00000          -0.374794          -10.19866
     82       2.00000          -0.374023          -10.17768
     83       2.00000          -0.368464          -10.02641
     84       2.00000          -0.367292           -9.99453
     85       2.00000          -0.366773           -9.98041
     86       2.00000          -0.360049           -9.79743
     87       2.00000          -0.356860           -9.71066
     88       2.00000          -0.355785           -9.68141
     89       2.00000          -0.341291           -9.28701
     90       2.00000          -0.335380           -9.12616
     91       2.00000          -0.331119           -9.01020
     92       2.00000          -0.330060           -8.98138
     93       2.00000          -0.329390           -8.96315
     94       2.00000          -0.312778           -8.51111
     95       2.00000          -0.310528           -8.44989
     96       2.00000          -0.305693           -8.31833
     97       2.00000          -0.303650           -8.26273
     98       2.00000          -0.297554           -8.09685
     99       2.00000          -0.295775           -8.04843
    100       2.00000          -0.293280           -7.98055
    101       2.00000          -0.287165           -7.81416
    102       2.00000          -0.277210           -7.54328
    103       2.00000          -0.270114           -7.35018
    104       2.00000          -0.264883           -7.20782
    105       2.00000          -0.257310           -7.00177
    106       2.00000          -0.242629           -6.60228
    107       2.00000          -0.238470           -6.48909
    108       2.00000          -0.236602           -6.43827
    109       2.00000          -0.232015           -6.31345
    110       2.00000          -0.229794           -6.25302
    111       2.00000          -0.222979           -6.06756
    112       2.00000          -0.199378           -5.42534
    113       2.00000          -0.161162           -4.38545
    114       0.00000          -0.117095           -3.18632
    115       0.00000          -0.072519           -1.97336
    116       0.00000          -0.056866           -1.54739
    117       0.00000          -0.048220           -1.31214
    118       0.00000          -0.047321           -1.28766
    119       0.00000          -0.042055           -1.14437
    120       0.00000          -0.034594           -0.94135
    121       0.00000          -0.032752           -0.89122
    122       0.00000          -0.011214           -0.30516
    123       0.00000          -0.010387           -0.28266
    124       0.00000          -0.007982           -0.21719
    125       0.00000          -0.005980           -0.16273
    126       0.00000           0.000632            0.01721
    127       0.00000           0.001336            0.03636
    128       0.00000           0.004508            0.12266
    129       0.00000           0.014625            0.39797
    130       0.00000           0.018606            0.50630
    131       0.00000           0.018683            0.50839
    132       0.00000           0.020120            0.54748
    133       0.00000           0.021725            0.59117
    134       0.00000           0.034218            0.93113
    135       0.00000           0.034760            0.94587
    136       0.00000           0.036420            0.99103
    137       0.00000           0.043400            1.18096
    138       0.00000           0.046464            1.26436
    139       0.00000           0.046698            1.27072
    140       0.00000           0.050944            1.38626
    141       0.00000           0.053019            1.44272
    142       0.00000           0.057655            1.56887
    143       0.00000           0.065365            1.77868
    144       0.00000           0.071137            1.93574
    145       0.00000           0.072374            1.96940
    146       0.00000           0.089549            2.43674
    147       0.00000           0.092135            2.50711
    148       0.00000           0.095511            2.59900
    149       0.00000           0.097659            2.65744
    150       0.00000           0.101396            2.75914
    151       0.00000           0.105563            2.87253
    152       0.00000           0.112286            3.05545
    153       0.00000           0.113092            3.07739
    154       0.00000           0.119550            3.25312
    155       0.00000           0.122333            3.32886
    156       0.00000           0.125962            3.42760
    157       0.00000           0.127391            3.46650
    158       0.00000           0.129036            3.51125
    159       0.00000           0.136795            3.72238
    160       0.00000           0.138368            3.76519
    161       0.00000           0.138918            3.78016
    162       0.00000           0.145213            3.95144
    163       0.00000           0.147450            4.01232
    164       0.00000           0.150198            4.08708
    165       0.00000           0.151400            4.11981
    166       0.00000           0.153622            4.18026
    167       0.00000           0.154927            4.21577
    168       0.00000           0.161660            4.39898
    169       0.00000           0.164670            4.48091
    170       0.00000           0.166845            4.54009
    171       0.00000           0.167956            4.57030
    172       0.00000           0.169449            4.61095
    173       0.00000           0.172046            4.68162
    174       0.00000           0.177385            4.82690
    175       0.00000           0.180505            4.91178
    176       0.00000           0.181978            4.95187
    177       0.00000           0.185333            5.04317
    178       0.00000           0.186313            5.06982
    179       0.00000           0.187489            5.10183
    180       0.00000           0.188281            5.12340
    181       0.00000           0.188603            5.13215
    182       0.00000           0.191012            5.19770
    183       0.00000           0.194462            5.29158
    184       0.00000           0.196757            5.35402
    185       0.00000           0.198763            5.40861
    186       0.00000           0.202611            5.51332
    187       0.00000           0.211666            5.75974
    188       0.00000           0.213580            5.81181
    189       0.00000           0.216361            5.88749
    190       0.00000           0.217824            5.92729
    191       0.00000           0.221367            6.02369
    192       0.00000           0.224334            6.10444
    193       0.00000           0.228840            6.22706
    194       0.00000           0.230208            6.26429
    195       0.00000           0.232569            6.32852
    196       0.00000           0.233977            6.36684
    197       0.00000           0.235726            6.41444
    198       0.00000           0.235896            6.41906
    199       0.00000           0.238275            6.48379
    200       0.00000           0.239724            6.52323
    201       0.00000           0.241613            6.57462
    202       0.00000           0.243376            6.62261
    203       0.00000           0.244125            6.64299
    204       0.00000           0.244808            6.66157
    205       0.00000           0.245780            6.68801
    206       0.00000           0.248737            6.76848
    207       0.00000           0.249841            6.79852
    208       0.00000           0.250961            6.82900
    209       0.00000           0.251696            6.84901
    210       0.00000           0.253476            6.89742
    211       0.00000           0.256088            6.96851
    212       0.00000           0.262198            7.13478
    213       0.00000           0.265655            7.22883
    214       0.00000           0.267237            7.27188
    215       0.00000           0.269069            7.32174
    216       0.00000           0.269725            7.33960
    217       0.00000           0.278158            7.56906
    218       0.00000           0.281116            7.64955
    219       0.00000           0.287299            7.81781
    220       0.00000           0.292213            7.95151
    221       0.00000           0.292802            7.96755
    222       0.00000           0.295068            8.02921
    223       0.00000           0.295769            8.04828
    224       0.00000           0.296992            8.08155
    225       0.00000           0.304662            8.29027
    226       0.00000           0.313113            8.52024
    227       0.00000           0.313734            8.53714
    228       0.00000           0.318201            8.65870
    229       0.00000           0.321913            8.75969
    230       0.00000           0.323300            8.79745
    231       0.00000           0.323591            8.80537
    232       0.00000           0.326427            8.88253
    233       0.00000           0.329418            8.96393
    234       0.00000           0.330566            8.99516
    235       0.00000           0.336423            9.15454
    236       0.00000           0.339405            9.23569
    237       0.00000           0.342944            9.33199
    238       0.00000           0.346038            9.41617
    239       0.00000           0.348025            9.47024
    240       0.00000           0.353417            9.61696
    241       0.00000           0.355524            9.67431
    242       0.00000           0.358977            9.76827
    243       0.00000           0.367378            9.99686
    244       0.00000           0.370159           10.07254
    245       0.00000           0.371544           10.11022
    246       0.00000           0.376938           10.25702
    247       0.00000           0.381041           10.36865
    248       0.00000           0.384118           10.45240

  Highest occupied state (VBM) at     -4.38545425 eV
  | Occupation number:      2.00000000

  Lowest unoccupied state (CBM) at    -3.18631775 eV
  | Occupation number:      0.00000000

  Overall HOMO-LUMO gap:      1.19913650 eV.

  Total energy components:
  | Sum of eigenvalues            :        -744.56058676 Ha      -20260.52440984 eV
  | XC energy correction          :        -191.57632284 Ha       -5213.05698180 eV
  | XC potential correction       :         246.10792745 Ha        6696.93744237 eV
  | Free-atom electrostatic energy:        -569.54382602 Ha      -15498.07603956 eV
  | Hartree energy correction     :         -48.72327604 Ha       -1325.82779843 eV
  | Entropy correction            :           0.00000000 Ha           0.00000000 eV
  | ---------------------------
  | Total energy                  :       -1308.29608421 Ha      -35600.54778727 eV
  | Total energy, T -> 0          :       -1308.29608421 Ha      -35600.54778727 eV  <-- do not rely on this value for anything but (periodic) metals
  | Electronic free energy        :       -1308.29608421 Ha      -35600.54778727 eV

  Derived energy quantities:
  | Kinetic energy                :        1305.41631277 Ha       35522.18521936 eV
  | Electrostatic energy          :       -2422.13607414 Ha      -65909.67602483 eV
  | Energy correction for multipole
  | error in Hartree potential    :          -0.15535899 Ha          -4.22753315 eV
  | Sum of eigenvalues per atom                           :        -361.79507875 eV
  | Total energy (T->0) per atom                          :        -635.72406763 eV  <-- do not rely on this value for anything but (periodic) metals
  | Electronic free energy per atom                       :        -635.72406763 eV
  End evaluation of scaled ZORA corrections.
  | Time for scaled ZORA corrections           :        6.102 s           6.103 s
------------------------------------------------------------

  Energy and forces in a compact form:
  | Total energy uncorrected      :         -0.356005477872726E+05 eV
  | Total energy corrected        :         -0.356005477872726E+05 eV  <-- do not rely on this value for anything but (periodic) metals
  | Electronic free energy        :         -0.356005477872726E+05 eV

  ------------------------------------ 
  Start decomposition of the XC Energy 
  ------------------------------------ 
  X and C from original XC functional choice 
  Hartree-Fock Energy :          0.000000000 Ha              0.000000000 eV
  X Energy            :       -184.011626585 Ha          -5007.211123488 eV
  C Energy            :         -7.564696251 Ha           -205.845858315 eV
  Total XC Energy     :       -191.576322837 Ha          -5213.056981803 eV
  ------------------------------------ 
  LDA X and C from self-consistent density 
  X Energy LDA        :       -166.658889376 Ha          -4535.019119149 eV
  C Energy LDA        :        -14.575513583 Ha           -396.619904399 eV
  ------------------------------------ 
  End decomposition of the XC Energy 
  ------------------------------------ 

------------------------------------------------------------

------------------------------------------------------------------------------
  Final output of selected total energy values:

  The following output summarizes some interesting total energy values
  at the end of a run (AFTER all relaxation, molecular dynamics, etc.).

  | Total energy of the DFT / Hartree-Fock s.c.f. calculation      :         -35600.547787273 eV
  | Final zero-broadening corrected energy (caution - metals only) :         -35600.547787273 eV
  | For reference only, the value of 1 Hartree used in FHI-aims is :             27.211384500 eV

  Before relying on these values, please be sure to understand exactly which
  total energy value is referred to by a given number. Different objects may
  all carry the same name 'total energy'. Definitions:

  Total energy of the DFT / Hartree-Fock s.c.f. calculation:
  | Note that this energy does not include ANY quantities calculated after the
  | s.c.f. cycle, in particular not ANY RPA, MP2, etc. many-body perturbation terms.
  | Scalar relativistic effects have been included in the 'scaled ZORA' approximation.

  Final zero-broadening corrected energy:
  | For metallic systems only, a broadening of the occupation numbers at the Fermi
  | level can be extrapolated back to zero broadening by an electron-gas inspired
  | formula. For all systems that are not real metals, this value can be
  | meaningless and should be avoided.

------------------------------------------------------------------------------
  Methods described in the following list of references were used in this FHI-aims run.
  If you publish the results, please make sure to cite these reference if they apply.
  FHI-aims is an academic code, and for our developers (often, Ph.D. students
  and postdocs), scientific credit in the community is essential.
  Thank you for helping us!

  For any use of FHI-aims, please cite:

    Volker Blum, Ralf Gehrke, Felix Hanke, Paula Havu, Ville Havu,
    Xinguo Ren, Karsten Reuter, and Matthias Scheffler
    'Ab initio molecular simulations with numeric atom-centered orbitals'
    Computer Physics Communications 180, 2175-2196 (2009)
    http://dx.doi.org/10.1016/j.cpc.2009.06.022


  The scalable eigensolver library ELPA was used in your run.
  ELPA is essential especially for large systems on hundreds or thousands of CPUs.
  For ELPA, please cite:

    Andreas Marek, Volker Blum, Rainer Johanni, Ville Havu, Bruno Lang,
    Thomas Auckenthaler, Alexander Heinecke, Hans-Joachim Bungartz, and Hermann Lederer,
    'The ELPA Library - Scalable Parallel Eigenvalue Solutions
    for Electronic Structure Theory and Computational Science'
    The Journal of Physics: Condensed Matter 26, 213201 (2014).
    http://dx.doi.org/10.1088/0953-8984/26/21/213201


  The ELSI infrastructure was used in your run to solve the Kohn-Sham electronic structure.
  Please check out http://elsi-interchange.org to learn more.
  If scalability is important for your project, please acknowledge ELSI by citing:

    V. W-z. Yu, F. Corsetti, A. Garcia, W. P. Huhn, M. Jacquelin, W. Jia,
    B. Lange, L. Lin, J. Lu, W. Mi, A. Seifitokaldani, A. Vazquez-Mayagoitia,
    C. Yang, H. Yang, and V. Blum
    'ELSI: A unified software interface for Kohn-Sham electronic structure solvers'
    Computer Physics Communications 222, 267-285 (2018).
    http://dx.doi.org/10.1016/j.cpc.2017.09.007


  For the real-space grid partitioning and parallelization used in this calculation, please cite:

    Ville Havu, Volker Blum, Paula Havu, and Matthias Scheffler,
    'Efficient O(N) integration for all-electron electronic structure calculation'
    'using numerically tabulated basis functions'
    Journal of Computational Physics 228, 8367-8379 (2009).
    http://dx.doi.org/10.1016/j.jcp.2009.08.008

  Of course, there are many other important community references, e.g., those cited in the
  above references. Our list is limited to references that describe implementations in the
  FHI-aims code. The reason is purely practical (length of this list) - please credit others as well.

------------------------------------------------------------
          Leaving FHI-aims.
          Date     :  20210727, Time     :  232153.767

          Computational steps:
          | Number of self-consistency cycles          :           18
          | Number of SCF (re)initializations          :            1

          Detailed time accounting                     :  max(cpu_time)    wall_clock(cpu1)
          | Total time                                 :      123.108 s         123.351 s
          | Preparation time                           :        0.198 s           0.186 s
          | Boundary condition initalization           :        0.001 s           0.004 s
          | Grid partitioning                          :        0.962 s           0.968 s
          | Preloading free-atom quantities on grid    :        0.014 s           0.017 s
          | Free-atom superposition energy             :        0.079 s           0.080 s
          | Total time for integrations                :       69.645 s          69.653 s
          | Total time for solution of K.-S. equations :        3.667 s           3.696 s
          | Total time for density update              :       28.443 s          28.390 s
          | Total time for mixing                      :        0.166 s           0.170 s
          | Total time for Hartree multipole update    :        0.179 s           0.185 s
          | Total time for Hartree multipole sum       :       12.349 s          12.352 s
          | Total time for total energy evaluation     :        0.007 s           0.033 s
          | Total time for scaled ZORA corrections     :        6.102 s           6.103 s

          Partial memory accounting:
          | Residual value for overall tracked memory usage across tasks :     0.000000 MB (should be 0.000000 MB)
          | Peak values for overall tracked memory usage (after allocating zora_vector2):
          |   Minimum:       29.292 MB (on task 49)
          |   Maximum:       38.038 MB (on task  7)
          |   Average:       33.582 MB
          | Largest tracked array allocation (hamiltonian_shell):
          |   Minimum:        8.471 MB (on task  1)
          |   Maximum:        8.471 MB (on task  1)
          |   Average:        8.471 MB
          Note:  These values currently only include a subset of arrays which are explicitly tracked.
          The "true" memory usage will be greater.

          Have a nice day.
------------------------------------------------------------
