  MPI-parallelism will be employed.
------------------------------------------------------------
          Invoking FHI-aims ...
          Version 180607
          Git rev. (modified): 6724847 Fix JSON memory corruption in scf_solver
          Compiled on 2018/06/27 at 16:00:31 on host coe.psc.edu.

          When using FHI-aims, please cite the following reference:

          Volker Blum, Ralf Gehrke, Felix Hanke, Paula Havu,
          Ville Havu, Xinguo Ren, Karsten Reuter, and Matthias Scheffler,
          'Ab Initio Molecular Simulations with Numeric Atom-Centered Orbitals',
          Computer Physics Communications 180, 2175-2196 (2009)

          For any questions about FHI-aims, please visit the aimsclub website
          with its forums and wiki. Contributions to both the forums and the
          wiki are warmly encouraged - they are for you, and everyone is welcome there.

------------------------------------------------------------



  Date     :  20210620, Time     :  173842.313
  Time zero on CPU 1             :   0.250108000000000E+00  s.
  Internal wall clock time zero  :           393442722.313  s.

  FHI-aims created a unique identifier for this run for later identification
  aims_uuid : D7C6BD6A-BCAD-42C6-A7B4-BDD799AE7D53

  Using       56 parallel tasks.
  Task        0 on host d021 reporting.
  Task        1 on host d021 reporting.
  Task        2 on host d021 reporting.
  Task        3 on host d021 reporting.
  Task        4 on host d021 reporting.
  Task        5 on host d021 reporting.
  Task        6 on host d021 reporting.
  Task        7 on host d021 reporting.
  Task        8 on host d021 reporting.
  Task        9 on host d021 reporting.
  Task       10 on host d021 reporting.
  Task       11 on host d021 reporting.
  Task       12 on host d021 reporting.
  Task       13 on host d021 reporting.
  Task       14 on host d021 reporting.
  Task       15 on host d021 reporting.
  Task       16 on host d021 reporting.
  Task       17 on host d021 reporting.
  Task       18 on host d021 reporting.
  Task       19 on host d021 reporting.
  Task       20 on host d021 reporting.
  Task       21 on host d021 reporting.
  Task       22 on host d021 reporting.
  Task       23 on host d021 reporting.
  Task       24 on host d021 reporting.
  Task       25 on host d021 reporting.
  Task       26 on host d021 reporting.
  Task       27 on host d021 reporting.
  Task       28 on host d021 reporting.
  Task       29 on host d021 reporting.
  Task       30 on host d021 reporting.
  Task       31 on host d021 reporting.
  Task       32 on host d021 reporting.
  Task       33 on host d021 reporting.
  Task       34 on host d021 reporting.
  Task       35 on host d021 reporting.
  Task       36 on host d021 reporting.
  Task       37 on host d021 reporting.
  Task       38 on host d021 reporting.
  Task       39 on host d021 reporting.
  Task       40 on host d021 reporting.
  Task       41 on host d021 reporting.
  Task       42 on host d021 reporting.
  Task       43 on host d021 reporting.
  Task       44 on host d021 reporting.
  Task       45 on host d021 reporting.
  Task       46 on host d021 reporting.
  Task       47 on host d021 reporting.
  Task       48 on host d021 reporting.
  Task       49 on host d021 reporting.
  Task       50 on host d021 reporting.
  Task       51 on host d021 reporting.
  Task       52 on host d021 reporting.
  Task       53 on host d021 reporting.
  Task       54 on host d021 reporting.
  Task       55 on host d021 reporting.

  Performing system and environment tests:
  *** Environment variable OMP_NUM_THREADS is not set
  *** For performance reasons you might want to set it to 1
  | Stacksize not measured: no C compiler
  | Checking for scalapack...
  | Testing pdtran()...
  | All pdtran() tests passed.

  Obtaining array dimensions for all initial allocations:
  
  -----------------------------------------------------------------------
  Parsing control.in (first pass over file, find array dimensions only).
  The contents of control.in will be repeated verbatim below
  unless switched off by setting 'verbatim_writeout .false.' .
  in the first line of control.in .
  -----------------------------------------------------------------------
  
  #===============================================================================
  # FHI-aims file: ./Runs/es/control.in
  # Created using the Atomic Simulation Environment (ASE)
  # Mon Jan 13 16:04:38 2020
  #===============================================================================
  xc                                 pbe
  relativistic                       zora scalar 1e-12
  occupation_type                    gaussian 0.0001
  load_balancing                     .true.
  KS_method                          scalapack_fast
  mixer                              pulay
  n_max_pulay                        5
  charge_mix_param                   0.4
  sc_accuracy_etot                   1e-6
  sc_accuracy_eev                    1e-4
  sc_accuracy_rho                    1e-6
  sc_iter_limit                      100
  prodbas_threshold                  1e-4
  basis_threshold                    1e-5
  override_illconditioning           .true.
  use_logsbt                         .true.
  spin                               none
  charge                             0
  #===============================================================================
  
  ################################################################################
  #
  #  FHI-aims code project
  # Volker Blum, Fritz Haber Institute Berlin, 2009
  #
  #  Suggested "tight" defaults for H atom (to be pasted into control.in file)
  #
  ################################################################################
    species        H
  #     global species definitions
      nucleus             1
      mass                1.00794
  #
      l_hartree           6
  #
      cut_pot             4.0  2.0  1.0
      basis_dep_cutoff    1e-4
  #
      radial_base         24 7.0
      radial_multiplier   2
      angular_grids       specified
        division   0.1930   50
        division   0.3175  110
        division   0.4293  194
        division   0.5066  302
        division   0.5626  434
  #      division   0.5922  590
  #      division   0.6227  974
  #      division   0.6868 1202
  #      outer_grid  770
        outer_grid  434
  ################################################################################
  #
  #  Definition of "minimal" basis
  #
  ################################################################################
  #     valence basis states
      valence      1  s   1.
  #     ion occupancy
      ion_occ      1  s   0.5
  ################################################################################
  #
  #  Suggested additional basis functions. For production calculations,
  #  uncomment them one after another (the most important basis functions are
  #  listed first).
  #
  #  Basis constructed for dimers: 0.5 A, 0.7 A, 1.0 A, 1.5 A, 2.5 A
  #
  ################################################################################
  #  "First tier" - improvements: -1014.90 meV to -62.69 meV
       hydro 2 s 2.1
       hydro 2 p 3.5
  #  "Second tier" - improvements: -12.89 meV to -1.83 meV
       hydro 1 s 0.85
       hydro 2 p 3.7
       hydro 2 s 1.2
       hydro 3 d 7
  #  "Third tier" - improvements: -0.25 meV to -0.12 meV
  #     hydro 4 f 11.2
  #     hydro 3 p 4.8
  #     hydro 4 d 9
  #     hydro 3 s 3.2
  ################################################################################
  #
  # For methods that use the localized form of the "resolution of identity" for
  # the two-electron Coulomb operator (RI_method LVL), particularly Hartree-Fock and
  # hybrid density functional calculations, the highest accuracy can be obtained by
  # uncommenting the line beginning with "for_aux"  below, thus adding an extra g radial
  # function to the construction of the product basis set for the expansion.
  # See Ref. New J. Phys. 17, 093020 (2015) for more information, particularly Figs. 1 and 6.
  #
  ################################################################################
  #
  # for_aux hydro 5 g 6.0
  ################################################################################
  #
  #  FHI-aims code project
  # Volker Blum, Fritz Haber Institute Berlin, 2009
  #
  #  Suggested "tight" defaults for C atom (to be pasted into control.in file)
  #
  ################################################################################
    species        C
  #     global species definitions
      nucleus             6
      mass                12.0107
  #
      l_hartree           6
  #
      cut_pot             4.0  2.0  1.0
      basis_dep_cutoff    1e-4
  #
      radial_base         34 7.0
      radial_multiplier   2
      angular_grids specified
        division   0.2187   50
        division   0.4416  110
        division   0.6335  194
        division   0.7727  302
        division   0.8772  434
  #      division   0.9334  590
  #      division   0.9924  770
  #      division   1.0230  974
  #      division   1.5020 1202
  #     outer_grid  974
        outer_grid  434
  ################################################################################
  #
  #  Definition of "minimal" basis
  #
  ################################################################################
  #     valence basis states
      valence      2  s   2.
      valence      2  p   2.
  #     ion occupancy
      ion_occ      2  s   1.
      ion_occ      2  p   1.
  ################################################################################
  #
  #  Suggested additional basis functions. For production calculations,
  #  uncomment them one after another (the most important basis functions are
  #  listed first).
  #
  #  Constructed for dimers: 1.0 A, 1.25 A, 1.5 A, 2.0 A, 3.0 A
  #
  ################################################################################
  #  "First tier" - improvements: -1214.57 meV to -155.61 meV
       hydro 2 p 1.7
       hydro 3 d 6
       hydro 2 s 4.9
  #  "Second tier" - improvements: -67.75 meV to -5.23 meV
       hydro 4 f 9.8
       hydro 3 p 5.2
       hydro 3 s 4.3
       hydro 5 g 14.4
       hydro 3 d 6.2
  #  "Third tier" - improvements: -2.43 meV to -0.60 meV
  #     hydro 2 p 5.6
  #     hydro 2 s 1.4
  #     hydro 3 d 4.9
  #     hydro 4 f 11.2
  #  "Fourth tier" - improvements: -0.39 meV to -0.18 meV
  #     hydro 2 p 2.1
  #     hydro 5 g 16.4
  #     hydro 4 d 13.2
  #     hydro 3 s 13.6
  #     hydro 4 f 17.6
  #  Further basis functions - improvements: -0.08 meV and below
  #     hydro 3 s 2
  #     hydro 3 p 6
  #     hydro 4 d 20
  ################################################################################
  #
  # For methods that use the localized form of the "resolution of identity" for
  # the two-electron Coulomb operator (RI_method LVL), particularly Hartree-Fock and
  # hybrid density functional calculations, the highest accuracy can be obtained by
  # uncommenting the line beginning with "for_aux"  below, thus adding an extra g radial
  # function to the construction of the product basis set for the expansion.
  # See Ref. New J. Phys. 17, 093020 (2015) for more information, particularly Figs. 1 and 6.
  #
  ################################################################################
  #
  # for_aux hydro 5 g 6.0
  
  -----------------------------------------------------------------------
  Completed first pass over input file control.in .
  -----------------------------------------------------------------------
  
  
  -----------------------------------------------------------------------
  Parsing geometry.in (first pass over file, find array dimensions only).
  The contents of geometry.in will be repeated verbatim below
  unless switched off by setting 'verbatim_writeout .false.' .
  in the first line of geometry.in .
  -----------------------------------------------------------------------
  
  #=======================================================
  # FHI-aims file: geometry.in
  # Created using the Atomic Simulation Environment (ASE)
  # Sun Jun 20 15:47:02 2021
  #=======================================================
  atom 10.5765639999999994 14.9550070000000002 36.5582660000000033 C
  atom 9.6073930000000001 14.5620879999999993 36.2495240000000010 H
  atom 10.9016970000000004 14.9121620000000004 37.9217069999999978 C
  atom 11.4313409999999998 15.5243199999999995 35.6340440000000029 C
  atom 10.0006860000000000 14.4024509999999992 38.8988640000000032 C
  atom 12.1385249999999996 15.4316530000000007 38.3723730000000032 C
  atom 11.0645810000000004 15.6808099999999992 34.2176669999999987 C
  atom 12.6822199999999992 15.9995329999999996 36.1061690000000013 C
  atom 9.0517409999999998 13.9900459999999995 38.5603649999999973 H
  atom 10.3051100000000009 14.4229219999999998 40.2251079999999988 C
  atom 13.0274160000000006 15.9563150000000000 37.4080920000000035 C
  atom 12.4223809999999997 15.4535610000000005 39.7687200000000018 C
  atom 9.8753740000000008 15.2420030000000004 33.6081950000000020 C
  atom 11.8409080000000007 16.3240289999999995 33.2462319999999991 C
  atom 13.3836750000000002 16.4303929999999987 35.3925440000000009 H
  atom 9.5995670000000004 14.0049890000000001 40.9417380000000009 H
  atom 11.5123390000000008 14.9717280000000006 40.6628979999999984 C
  atom 13.9912430000000008 16.3449060000000017 37.7327140000000014 H
  atom 13.3706630000000004 15.8797080000000008 40.0986359999999991 H
  atom 9.0639699999999994 14.7003690000000002 34.0890479999999982 H
  atom 9.8888879999999997 15.5748130000000007 32.2504759999999990 C
  atom 11.1826530000000002 16.2773970000000006 32.0229980000000012 C
  atom 12.8141049999999996 16.7853719999999988 33.3911609999999968 H
  atom 11.7332040000000006 15.0039709999999999 41.7309029999999979 H
  atom 8.9094040000000003 15.2683719999999994 31.3233929999999994 C
  atom 11.6561480000000000 16.7870789999999985 30.8269459999999995 C
  atom 8.0335760000000001 14.7473949999999991 31.7141130000000011 H
  atom 8.9005530000000004 15.5426190000000002 29.9642429999999997 C
  atom 11.0676550000000002 16.7414270000000016 29.5808199999999992 C
  atom 12.6257629999999992 17.2852449999999997 30.8813120000000012 H
  atom 8.0164659999999994 15.2015609999999999 29.4233019999999996 H
  atom 9.8701139999999992 16.1890280000000004 29.2002580000000016 C
  atom 11.6363350000000008 17.2277020000000007 28.7859319999999990 H
  atom 9.6322589999999995 16.2736449999999984 28.1369739999999986 H
  
  -----------------------------------------------------------------------
  Completed first pass over input file geometry.in .
  -----------------------------------------------------------------------
  

  Basic array size parameters:
  | Number of species                 :        2
  | Number of atoms                   :       34
  | Max. basis fn. angular momentum   :        4
  | Max. atomic/ionic basis occupied n:        2
  | Max. number of basis fn. types    :        2
  | Max. radial fns per species/type  :        8
  | Max. logarithmic grid size        :     1277
  | Max. radial integration grid size :       69
  | Max. angular integration grid size:      434
  | Max. angular grid division number :        8
  | Radial grid for Hartree potential :     1277
  | Number of spin channels           :        1

------------------------------------------------------------
          Reading file control.in.
------------------------------------------------------------
  XC: Using PBE gradient-corrected functionals.
  Scalar relativistic treatment of kinetic energy: ZORA.
  Threshold value for ZORA:   0.100000E-11
  Occupation type: Gaussian broadening, width =   0.100000E-03 eV.
  Since 'load_balancing .true.' is present in control.in, automatically turning on 'use_local_index .true.'.
  Using load balancing for integrations.
  Kohn-Sham electronic structure solved by the ELSI library.
  Using pulay charge density mixing.
  Pulay mixing - number of memorized iterations:    5
  Charge density mixing - mixing parameter:     0.4000
  Convergence accuracy of total energy:  0.1000E-05
  Convergence accuracy of sum of eigenvalues:  0.1000E-03
  Convergence accuracy of self-consistent charge density:  0.1000E-05
  Maximum number of s.-c. iterations  :   100
  * Ignoring prodbas_threshold
  Threshold for basis singularities:  0.1000E-04
  override_illconditioning: Explicitly overriding any built-in checks for an ill-conditioned overlap matrix.
  *** WARNING: If you use this flag, you should really know what you are doing.
  *** DO NOT keep this flag set by default in all your control.in files.
  Using 1D integrations for auxiliary 2-center integrals.
  Spin treatment: No spin polarisation.
  Charge =   0.000000E+00: Neutral system requested explicitly.
 
  Reading configuration options for species H                   .
  | Found nuclear charge :   1.0000
  | Found atomic mass :    1.00794000000000      amu
  | Found l_max for Hartree potential  :   6
  | Found cutoff potl. onset [A], width [A], scale factor :    4.00000    2.00000    1.00000
  | Threshold for basis-dependent cutoff potential is   0.100000E-03
  | Found data for basic radial integration grid :    24 points, outermost radius =    7.000 A
  | Found multiplier for basic radial grid :   2
  | Found angular grid specification: user-specified.
  | Specified grid contains     6 separate shells.
  | Check grid settings after all constraints further below.
  | Found free-atom valence shell :  1 s   1.000
  | No ionic wave fns used. Skipping ion_occ.
  | Found hydrogenic basis function :  2 s   2.100
  | Found hydrogenic basis function :  2 p   3.500
  | Found hydrogenic basis function :  1 s   0.850
  | Found hydrogenic basis function :  2 p   3.700
  | Found hydrogenic basis function :  2 s   1.200
  | Found hydrogenic basis function :  3 d   7.000
  Species H                   : Missing cutoff potential type.
  Defaulting to exp(1/x)/(1-x)^2 type cutoff potential.
  Species H : No 'logarithmic' tag. Using default grid for free atom:
  | Default logarithmic grid data [bohr] : 0.1000E-03 0.1000E+03 0.1012E+01
  Species H : On-site basis accuracy parameter (for Gram-Schmidt orthonormalisation) not specified.
  Using default value basis_acc =  0.1000000E-03.
  Species H                   : Using default innermost maximum threshold i_radial=  2 for radial functions.
  Species H                   : Default cutoff onset for free atom density etc. : 0.40000000E+01 AA.
  Species H                   : Basic radial grid will be enhanced according to radial_multiplier =   2, to contain    49 grid points.
 
  Reading configuration options for species C                   .
  | Found nuclear charge :   6.0000
  | Found atomic mass :    12.0107000000000      amu
  | Found l_max for Hartree potential  :   6
  | Found cutoff potl. onset [A], width [A], scale factor :    4.00000    2.00000    1.00000
  | Threshold for basis-dependent cutoff potential is   0.100000E-03
  | Found data for basic radial integration grid :    34 points, outermost radius =    7.000 A
  | Found multiplier for basic radial grid :   2
  | Found angular grid specification: user-specified.
  | Specified grid contains     6 separate shells.
  | Check grid settings after all constraints further below.
  | Found free-atom valence shell :  2 s   2.000
  | Found free-atom valence shell :  2 p   2.000
  | No ionic wave fns used. Skipping ion_occ.
  | No ionic wave fns used. Skipping ion_occ.
  | Found hydrogenic basis function :  2 p   1.700
  | Found hydrogenic basis function :  3 d   6.000
  | Found hydrogenic basis function :  2 s   4.900
  | Found hydrogenic basis function :  4 f   9.800
  | Found hydrogenic basis function :  3 p   5.200
  | Found hydrogenic basis function :  3 s   4.300
  | Found hydrogenic basis function :  5 g  14.400
  | Found hydrogenic basis function :  3 d   6.200
  Species C                   : Missing cutoff potential type.
  Defaulting to exp(1/x)/(1-x)^2 type cutoff potential.
  Species C : No 'logarithmic' tag. Using default grid for free atom:
  | Default logarithmic grid data [bohr] : 0.1000E-03 0.1000E+03 0.1012E+01
  Species C : On-site basis accuracy parameter (for Gram-Schmidt orthonormalisation) not specified.
  Using default value basis_acc =  0.1000000E-03.
  Species C                   : Using default innermost maximum threshold i_radial=  2 for radial functions.
  Species C                   : Default cutoff onset for free atom density etc. : 0.40000000E+01 AA.
  Species C                   : Basic radial grid will be enhanced according to radial_multiplier =   2, to contain    69 grid points.
 
  Finished reading input file 'control.in'. Consistency checks are next.
 
  MPI_IN_PLACE appears to work with this MPI implementation.
  | Keeping use_mpi_in_place .true. (see manual).
  Target number of points in a grid batch is not set. Defaulting to  100
  Method for grid partitioning is not set. Defaulting to parallel hash+maxmin partitioning.
  Batch size limit is not set. Defaulting to    200
  By default, will store active basis functions for each batch.
  If in need of memory, prune_basis_once .false. can be used to disable this option.
  communication_type for Hartree potential was not specified.
  Defaulting to calc_hartree .
  Pulay mixer: Number of initial linear mixing iterations not set.
  Defaulting to    0 iterations.
  Work space size for distributed Hartree potential not set.
  Defaulting to   0.200000E+03 MB.
  Algorithm-dependent basis array size parameters:
  | n_max_pulay                         :        5
  Presetting      1001 iterations before the initial mixing cycle
  is restarted anyway using the sc_init_iter criterion / keyword.
  Presetting a factor      1.000 between actual scf density residual
  and density convergence criterion sc_accuracy_rho below which sc_init_iter
  takes no effect.
  Calculation of forces was not defined in control.in. No forces will be calculated.
  Geometry relaxation not requested: no relaxation will be performed.
  No accuracy limit for integral partition fn. given. Defaulting to  0.1000E-14.
  No threshold value for u(r) in integrations given. Defaulting to  0.1000E-05.
  No accuracy for occupation numbers given. Defaulting to  0.1000E-12.
  No threshold value for occupation numbers given. Defaulting to  0.0000E+00.
  No accuracy for fermi level given. Defaulting to  0.1000E-19.
  Maximum # of iterations to find E_F not set. Defaulting to  200.
  Will not use alltoall communication since running on < 1024 CPUs.
  partition_type (choice of integration weights) for integrals was not specified.
  | Using a version of the partition function of Stratmann and coworkers ('stratmann_sparse').
  | At each grid point, the set of atoms used to build the partition table is smoothly restricted to
  | only those atoms whose free-atom density would be non-zero at that grid point.
  Partitioning for Hartree potential was not defined. Using partition_type for integrals.
  | Adjusted default value of keyword multip_moments_threshold to:       0.10000000E-11
  | This value may affect high angular momentum components of the Hartree potential in periodic systems.
  No q(lm)/r^(l+1) cutoff set for long-range Hartree potential.
  | Using default value of  0.100000E-09 .
  | Verify using the multipole_threshold keyword.
  Defaulting to new monopole extrapolation.
  Density update method: automatic selection selected.
 * Warning: use_local_index and/or load_balancing needs packed_matrix_format = index
 * Changing the default setting to packed_matrix_format = index
------------------------------------------------------------


------------------------------------------------------------
          Reading geometry description geometry.in.
------------------------------------------------------------
  Input structure read successfully.
  The structure contains       34 atoms,  and a total of        134.000 electrons.

  Input geometry:
  | No unit cell requested.
  | Atomic structure:
  |       Atom                x [A]            y [A]            z [A]
  |    1: Species C            10.57656400       14.95500700       36.55826600
  |    2: Species H             9.60739300       14.56208800       36.24952400
  |    3: Species C            10.90169700       14.91216200       37.92170700
  |    4: Species C            11.43134100       15.52432000       35.63404400
  |    5: Species C            10.00068600       14.40245100       38.89886400
  |    6: Species C            12.13852500       15.43165300       38.37237300
  |    7: Species C            11.06458100       15.68081000       34.21766700
  |    8: Species C            12.68222000       15.99953300       36.10616900
  |    9: Species H             9.05174100       13.99004600       38.56036500
  |   10: Species C            10.30511000       14.42292200       40.22510800
  |   11: Species C            13.02741600       15.95631500       37.40809200
  |   12: Species C            12.42238100       15.45356100       39.76872000
  |   13: Species C             9.87537400       15.24200300       33.60819500
  |   14: Species C            11.84090800       16.32402900       33.24623200
  |   15: Species H            13.38367500       16.43039300       35.39254400
  |   16: Species H             9.59956700       14.00498900       40.94173800
  |   17: Species C            11.51233900       14.97172800       40.66289800
  |   18: Species H            13.99124300       16.34490600       37.73271400
  |   19: Species H            13.37066300       15.87970800       40.09863600
  |   20: Species H             9.06397000       14.70036900       34.08904800
  |   21: Species C             9.88888800       15.57481300       32.25047600
  |   22: Species C            11.18265300       16.27739700       32.02299800
  |   23: Species H            12.81410500       16.78537200       33.39116100
  |   24: Species H            11.73320400       15.00397100       41.73090300
  |   25: Species C             8.90940400       15.26837200       31.32339300
  |   26: Species C            11.65614800       16.78707900       30.82694600
  |   27: Species H             8.03357600       14.74739500       31.71411300
  |   28: Species C             8.90055300       15.54261900       29.96424300
  |   29: Species C            11.06765500       16.74142700       29.58082000
  |   30: Species H            12.62576300       17.28524500       30.88131200
  |   31: Species H             8.01646600       15.20156100       29.42330200
  |   32: Species C             9.87011400       16.18902800       29.20025800
  |   33: Species H            11.63633500       17.22770200       28.78593200
  |   34: Species H             9.63225900       16.27364500       28.13697400
  |

  | The smallest distance between any two atoms is         1.08671716 AA.
  |
  | The first atom of this pair is atom number                     14 .
  | The second atom of this pair is atom number                    23 .

  Number of empty states per atom not set in control.in - providing a guess from actual geometry.
  | Total number of empty states used during s.c.f. cycle:       81
  If you use a very high smearing, use empty_states (per atom!) in control.in to increase this value.

  Structure-dependent array size parameters: 
  | Maximum number of distinct radial functions  :       18
  | Maximum number of basis functions            :      990
  | Number of Kohn-Sham states (occupied + empty):      148
------------------------------------------------------------

------------------------------------------------------------
          Preparing all fixed parts of the calculation.
------------------------------------------------------------
  Determining machine precision:
    2.225073858507201E-308
  Setting up grids for atomic and cluster calculations.

  Creating wave function, potential, and density for free atoms.

  Species: H

  List of occupied orbitals and eigenvalues:
    n    l              occ      energy [Ha]    energy [eV]
    1    0           1.0000        -0.238386        -6.4868


  Species: C

  List of occupied orbitals and eigenvalues:
    n    l              occ      energy [Ha]    energy [eV]
    1    0           2.0000       -10.049212      -273.4530
    2    0           2.0000        -0.504761       -13.7352
    2    1           2.0000        -0.193631        -5.2690

  Creating fixed part of basis set: Ionic, confined, hydrogenic.
 
  H                    hydrogenic:
 
  List of hydrogenic basis orbitals: 
    n    l      effective z      eigenvalue [eV]  inner max. [A]     outer max. [A]     outer radius [A]   
    2    0         2.100000       -14.9965           0.193243           1.317208           5.373006
    2    1         3.500000       -41.6672           0.602369           0.602369           4.056063
    1    0         0.850000        -9.8292           0.624871           0.624871           5.373006
    2    1         3.700000       -46.5653           0.573622           0.573622           3.910002
    2    0         1.200000        -4.5995           0.334980           2.228188           5.505995
    3    2         7.000000       -74.0753           0.680699           0.680699           3.769201
 
 
  C                    hydrogenic:
 
  List of hydrogenic basis orbitals: 
    n    l      effective z      eigenvalue [eV]  inner max. [A]     outer max. [A]     outer radius [A]   
    2    1         1.700000        -9.8152           1.245706           1.245706           5.401630
    3    2         6.000000       -54.4226           0.792453           0.792453           4.178599
    2    0         4.900000       -81.6681           0.082559           0.562749           3.353238
    4    3         9.800000       -81.6681           0.863254           0.863254           4.028125
    3    1         5.200000       -40.8774           0.305389           1.215618           4.898362
    3    0         4.300000       -27.9508           0.091041           1.610311           5.401630
    5    4        14.400000      -112.8510           0.917666           0.917666           3.883070
    3    2         6.200000       -58.1113           0.763917           0.763917           4.077671
 

  Adding cutoff potential to free-atom effective potential.
  Creating atomic-like basis functions for current effective potential.

  Species H                   :

  List of atomic basis orbitals and eigenvalues:
    n    l      energy [Ha]    energy [eV]    outer radius [A]
    1    0        -0.238386        -6.4868       5.373006


  Species C                   :

  List of atomic basis orbitals and eigenvalues:
    n    l      energy [Ha]    energy [eV]    outer radius [A]
    1    0       -10.049212      -273.4530       1.934409
    2    0        -0.504761       -13.7352       5.271162
    2    1        -0.193631        -5.2690       5.401630

  Assembling full basis from fixed parts.
  | Species H :   atomic orbital   1 s accepted.
  | Species H :    hydro orbital   2 s accepted.
  | Species H :    hydro orbital   1 s accepted.
  | Species H :    hydro orbital   2 s accepted.
  | Species H :    hydro orbital   2 p accepted.
  | Species H :    hydro orbital   2 p accepted.
  | Species H :    hydro orbital   3 d accepted.
  | Species C :   atomic orbital   1 s accepted.
  | Species C :    hydro orbital   2 s accepted.
  | Species C :   atomic orbital   2 s accepted.
  | Species C :    hydro orbital   3 s accepted.
  | Species C :    hydro orbital   3 p accepted.
  | Species C :   atomic orbital   2 p accepted.
  | Species C :    hydro orbital   2 p accepted.
  | Species C :    hydro orbital   3 d accepted.
  | Species C :    hydro orbital   3 d accepted.
  | Species C :    hydro orbital   4 f accepted.
  | Species C :    hydro orbital   5 g accepted.
 
  Basis size parameters after reduction:
  | Total number of radial functions:       18
  | Total number of basis functions :      990
 
  Per-task memory consumption for arrays in subroutine allocate_ext:
  |           4.436976MB.
  Testing on-site integration grid accuracy.
  |  Species  Function  <phi|h_atom|phi> (log., in eV)  <phi|h_atom|phi> (rad., in eV)
           1        1                 -6.4870767962                 -6.4871688290
           1        2                 13.5032046589                 13.5028982997
           1        3                 32.8195184817                 32.8119941656
           1        4                 33.8513856511                 33.7670005767 ***
           1        5                 28.8544614965                 28.8544615203
           1        6                 59.6326952547                 59.6327656460
           1        7                 60.2719308513                 60.2719305949
           2        8               -273.4529726040               -273.4529710464
           2        9                -10.7721037319                -10.7721022101
           2       10                 17.6044132601                 17.6044162063
           2       11                 53.7706460658                 53.7706913770
           2       12                 15.0973290362                 15.0973256030
           2       13                  3.8545134692                  3.8545724687
           2       14                 12.1156992592                 12.1182024431
           2       15                 29.4352039302                 29.4352041816
           2       16                 54.8741144708                 54.8740268729
           2       17                 59.3556032049                 59.3556031382
           2       18                 93.4551837154                 93.4551838009
 * Note: Onsite integrals marked "***" above are less accurate than
 * onsite_accuracy_threshold =    0.03000 eV. Usually, this is harmless.
 * When in doubt, tighten the "radial" and/or "radial_multiplier" flags to check.

  Preparing densities etc. for the partition functions (integrals / Hartree potential).

  Preparations completed.
  max(cpu_time)          :      0.204 s.
  Wall clock time (cpu1) :      0.209 s.
------------------------------------------------------------

------------------------------------------------------------
          Begin self-consistency loop: Initialization.

          Date     :  20210620, Time     :  173842.699
------------------------------------------------------------

  Initializing index lists of integration centers etc. from given atomic structure:
  | Number of centers in hartree potential         :        34
  | Number of centers in hartree multipole         :        34
  | Number of centers in electron density summation:        34
  | Number of centers in basis integrals           :        34
  | Number of centers in integrals                 :        34
  | Number of centers in hamiltonian               :        34
  * Using 56 tasks for Scalapack Eigenvalue solver.
  Detailed listing of tasks and assigned k-points:
  (for non-periodic systems, the "k-point" denotes an internal label only)
   Task     0 k-point     1 on d021
   Task     1 k-point     1 on d021
   Task     2 k-point     1 on d021
   Task     3 k-point     1 on d021
   Task     4 k-point     1 on d021
   Task     5 k-point     1 on d021
   Task     6 k-point     1 on d021
   Task     7 k-point     1 on d021
   Task     8 k-point     1 on d021
   Task     9 k-point     1 on d021
   Task    10 k-point     1 on d021
   Task    11 k-point     1 on d021
   Task    12 k-point     1 on d021
   Task    13 k-point     1 on d021
   Task    14 k-point     1 on d021
   Task    15 k-point     1 on d021
   Task    16 k-point     1 on d021
   Task    17 k-point     1 on d021
   Task    18 k-point     1 on d021
   Task    19 k-point     1 on d021
   Task    20 k-point     1 on d021
   Task    21 k-point     1 on d021
   Task    22 k-point     1 on d021
   Task    23 k-point     1 on d021
   Task    24 k-point     1 on d021
   Task    25 k-point     1 on d021
   Task    26 k-point     1 on d021
   Task    27 k-point     1 on d021
   Task    28 k-point     1 on d021
   Task    29 k-point     1 on d021
   Task    30 k-point     1 on d021
   Task    31 k-point     1 on d021
   Task    32 k-point     1 on d021
   Task    33 k-point     1 on d021
   Task    34 k-point     1 on d021
   Task    35 k-point     1 on d021
   Task    36 k-point     1 on d021
   Task    37 k-point     1 on d021
   Task    38 k-point     1 on d021
   Task    39 k-point     1 on d021
   Task    40 k-point     1 on d021
   Task    41 k-point     1 on d021
   Task    42 k-point     1 on d021
   Task    43 k-point     1 on d021
   Task    44 k-point     1 on d021
   Task    45 k-point     1 on d021
   Task    46 k-point     1 on d021
   Task    47 k-point     1 on d021
   Task    48 k-point     1 on d021
   Task    49 k-point     1 on d021
   Task    50 k-point     1 on d021
   Task    51 k-point     1 on d021
   Task    52 k-point     1 on d021
   Task    53 k-point     1 on d021
   Task    54 k-point     1 on d021
   Task    55 k-point     1 on d021
  Tasks:    56 split into      8 X      7 BLACS grid
  Calculating block size based on n_basis =          990 max_nprow =            8 max_npcol =            7
  ScaLAPACK block size set to:           16
  Allocating        0.147 MB for ovlp
  Allocating        0.147 MB for ham
  Allocating        0.147 MB for eigenvec
  Required Scalapack workspace - INTEGER:            1 REAL:             1
  Partitioning the integration grid into batches with parallel hashing+maxmin method.
  | Number of batches:     5608
  | Maximal batch size:     200
  | Minimal batch size:       3
  | Average batch size:     100.546
  | Standard deviation of batch sizes:      27.625

  Integration load balanced across     56 MPI tasks.
  Work distribution over tasks is as follows:
  Task      0 has      10205 integration points.
  Task      1 has      10186 integration points.
  Task      2 has       9944 integration points.
  Task      3 has      10175 integration points.
  Task      4 has      10074 integration points.
  Task      5 has      10097 integration points.
  Task      6 has       9970 integration points.
  Task      7 has      10111 integration points.
  Task      8 has      10137 integration points.
  Task      9 has       9997 integration points.
  Task     10 has      10140 integration points.
  Task     11 has      10031 integration points.
  Task     12 has      10093 integration points.
  Task     13 has       9989 integration points.
  Task     14 has      10159 integration points.
  Task     15 has      10132 integration points.
  Task     16 has       9969 integration points.
  Task     17 has      10072 integration points.
  Task     18 has      10049 integration points.
  Task     19 has      10028 integration points.
  Task     20 has      10016 integration points.
  Task     21 has      10075 integration points.
  Task     22 has      10075 integration points.
  Task     23 has      10051 integration points.
  Task     24 has      10077 integration points.
  Task     25 has      10049 integration points.
  Task     26 has      10094 integration points.
  Task     27 has       9952 integration points.
  Task     28 has      10148 integration points.
  Task     29 has      10158 integration points.
  Task     30 has       9985 integration points.
  Task     31 has      10117 integration points.
  Task     32 has      10117 integration points.
  Task     33 has      10071 integration points.
  Task     34 has      10049 integration points.
  Task     35 has      10072 integration points.
  Task     36 has      10106 integration points.
  Task     37 has       9971 integration points.
  Task     38 has      10149 integration points.
  Task     39 has       9972 integration points.
  Task     40 has      10075 integration points.
  Task     41 has       9971 integration points.
  Task     42 has      10143 integration points.
  Task     43 has      10122 integration points.
  Task     44 has       9959 integration points.
  Task     45 has      10179 integration points.
  Task     46 has      10028 integration points.
  Task     47 has      10075 integration points.
  Task     48 has       9997 integration points.
  Task     49 has      10124 integration points.
  Task     50 has      10055 integration points.
  Task     51 has      10037 integration points.
  Task     52 has      10162 integration points.
  Task     53 has      10094 integration points.
  Task     54 has      10130 integration points.
  Task     55 has       9847 integration points.
  Initializing partition tables, free-atom densities, potentials, etc. across the integration grid (initialize_grid_storage).
  | initialize_grid_storage: Actual outermost partition radius vs. multipole_radius_free
  | (-- VB: in principle, multipole_radius_free should be larger, hence this output)
  | Species        1: Confinement radius =              6.000000000000000 AA, multipole_radius_free =              6.071692442739658 AA.
  | Species        1: outer_partition_radius set to              6.071692442739658 AA .
  | Species        2: Confinement radius =              6.000000000000000 AA, multipole_radius_free =              6.029870734432609 AA.
  | Species        2: outer_partition_radius set to              6.029870734432609 AA .
  | The sparse table of interatomic distances needs     13.6040 kbyte instead of     9.2480 kbyte of memory.
  | Using the partition_type stratmann_smoother will reduce your memory usage.
  | Net number of integration points:   563860
  | of which are non-zero points    :   455859
  Renormalizing the initial density to the exact electron count on the 3D integration grid.
  | Initial density: Formal number of electrons (from input files) :     134.0000000000
  | Integrated number of electrons on 3D grid     :     134.0000434147
  | Charge integration error                      :       0.0000434147
  | Normalization factor for density and gradient :       0.9999996760
  Obtaining max. number of non-zero basis functions in each batch (get_n_compute_maxes).
  | Maximal number of non-zero basis functions:      687
  Selecting the method for density update.
  Loop over occupied states selected for charge density update.
  Hamiltonian matrix size:
  | Size of matrix non-packed:                490545
  | Size of matrix packed:          426309
  Allocating        1.172 MB for KS_eigenvector
  use_local_index: Max. local matrix size =       340688
  Task:     0 matrix size:      80601
  Task:     1 matrix size:     141776
  Task:     2 matrix size:     142309
  Task:     3 matrix size:     241092
  Task:     4 matrix size:     255502
  Task:     5 matrix size:     319203
  Task:     6 matrix size:     320396
  Task:     7 matrix size:      88410
  Task:     8 matrix size:     101475
  Task:     9 matrix size:     100576
  Task:    10 matrix size:     159293
  Task:    11 matrix size:     311681
  Task:    12 matrix size:     296678
  Task:    13 matrix size:     300085
  Task:    14 matrix size:     102831
  Task:    15 matrix size:     182809
  Task:    16 matrix size:     184409
  Task:    17 matrix size:     340688
  Task:    18 matrix size:     320349
  Task:    19 matrix size:     303712
  Task:    20 matrix size:     301638
  Task:    21 matrix size:      70125
  Task:    22 matrix size:     129795
  Task:    23 matrix size:     119316
  Task:    24 matrix size:     301360
  Task:    25 matrix size:     300687
  Task:    26 matrix size:     280908
  Task:    27 matrix size:     231515
  Task:    28 matrix size:     291149
  Task:    29 matrix size:     302865
  Task:    30 matrix size:     307171
  Task:    31 matrix size:     128265
  Task:    32 matrix size:     143362
  Task:    33 matrix size:      77028
  Task:    34 matrix size:      83436
  Task:    35 matrix size:     312766
  Task:    36 matrix size:     293366
  Task:    37 matrix size:     270478
  Task:    38 matrix size:     155382
  Task:    39 matrix size:      83845
  Task:    40 matrix size:     143908
  Task:    41 matrix size:      92235
  Task:    42 matrix size:     318167
  Task:    43 matrix size:     332049
  Task:    44 matrix size:     322902
  Task:    45 matrix size:     206122
  Task:    46 matrix size:     211128
  Task:    47 matrix size:     123753
  Task:    48 matrix size:     120295
  Task:    49 matrix size:     277126
  Task:    50 matrix size:     278798
  Task:    51 matrix size:     268113
  Task:    52 matrix size:     176823
  Task:    53 matrix size:     177434
  Task:    54 matrix size:     120295
  Task:    55 matrix size:      96141
  Integrating Hamiltonian matrix: batch-based integration.
  Time summed over all CPUs for integration: real work       70.713 s, elapsed      117.418 s
  Time get_set_sparse_local_matrix_scalapack:     0.009466 s
  Start compute_balanced_batch_distribution
  Done load balancing, time needed:      0.005 s
  Integrating overlap matrix with loadbalancing
  Time summed over all CPUs for integration: real work       18.842 s, elapsed       21.750 s
  Time get_set_full_local_matrix_scalapack:     0.008295 s

  Updating Kohn-Sham eigenvalues and eigenvectors using ELSI and the ELPA eigensolver.
  Overlap matrix is not singular
  | Lowest and highest eigenvalues :  0.10E+02,  0.88E-04
  Finished singularity check of overlap matrix
  | Time :     0.052 s
  Finished Cholesky decomposition
  | Time :     0.012 s
  Finished transformation to standard eigenproblem
  | Time :     0.007 s
  Starting ELPA eigensolver
  Finished solving standard eigenproblem
  | Time :     0.049 s
  Finished back-transformation of eigenvectors
  | Time :     0.002 s

  Obtaining occupation numbers and chemical potential using ELSI.
  | Chemical potential (Fermi level):    -8.62753051 eV
  Writing Kohn-Sham eigenvalues.

  State    Occupation    Eigenvalue [Ha]    Eigenvalue [eV]
      1       2.00000         -10.174994         -276.87568
      2       2.00000         -10.174703         -276.86776
      3       2.00000         -10.174698         -276.86762
      4       2.00000         -10.174048         -276.84993
      5       2.00000         -10.173838         -276.84422
      6       2.00000         -10.172734         -276.81418
      7       2.00000         -10.172244         -276.80083
      8       2.00000         -10.171534         -276.78152
      9       2.00000         -10.171186         -276.77206
     10       2.00000         -10.170978         -276.76640
     11       2.00000         -10.170584         -276.75568
     12       2.00000         -10.170152         -276.74393
     13       2.00000         -10.170025         -276.74047
     14       2.00000         -10.168695         -276.70428
     15       2.00000         -10.168652         -276.70311
     16       2.00000         -10.167717         -276.67765
     17       2.00000         -10.167078         -276.66026
     18       2.00000         -10.166396         -276.64172
     19       2.00000         -10.164620         -276.59337
     20       2.00000         -10.164395         -276.58727
     21       2.00000          -1.022136          -27.81373
     22       2.00000          -1.010035          -27.48446
     23       2.00000          -0.969125          -26.37122
     24       2.00000          -0.956664          -26.03215
     25       2.00000          -0.919099          -25.00995
     26       2.00000          -0.911962          -24.81574
     27       2.00000          -0.894851          -24.35015
     28       2.00000          -0.873569          -23.77102
     29       2.00000          -0.861637          -23.44633
     30       2.00000          -0.849981          -23.12916
     31       2.00000          -0.800065          -21.77087
     32       2.00000          -0.772101          -21.00994
     33       2.00000          -0.759506          -20.66722
     34       2.00000          -0.758582          -20.64207
     35       2.00000          -0.735994          -20.02741
     36       2.00000          -0.698816          -19.01576
     37       2.00000          -0.690267          -18.78311
     38       2.00000          -0.679167          -18.48107
     39       2.00000          -0.658778          -17.92625
     40       2.00000          -0.651965          -17.74086
     41       2.00000          -0.642173          -17.47441
     42       2.00000          -0.624118          -16.98311
     43       2.00000          -0.604545          -16.45050
     44       2.00000          -0.600590          -16.34287
     45       2.00000          -0.587213          -15.97888
     46       2.00000          -0.579090          -15.75785
     47       2.00000          -0.571600          -15.55404
     48       2.00000          -0.569106          -15.48615
     49       2.00000          -0.559523          -15.22540
     50       2.00000          -0.551625          -15.01048
     51       2.00000          -0.538612          -14.65638
     52       2.00000          -0.532256          -14.48343
     53       2.00000          -0.522824          -14.22675
     54       2.00000          -0.520997          -14.17704
     55       2.00000          -0.518643          -14.11298
     56       2.00000          -0.504896          -13.73892
     57       2.00000          -0.503040          -13.68842
     58       2.00000          -0.487354          -13.26156
     59       2.00000          -0.482927          -13.14111
     60       2.00000          -0.481746          -13.10899
     61       2.00000          -0.463868          -12.62250
     62       2.00000          -0.440618          -11.98984
     63       2.00000          -0.431762          -11.74883
     64       2.00000          -0.411094          -11.18643
     65       2.00000          -0.383507          -10.43576
     66       2.00000          -0.363459           -9.89022
     67       2.00000          -0.355512           -9.67397
     68       0.00000          -0.273824           -7.45112
     69       0.00000          -0.241063           -6.55964
     70       0.00000          -0.236111           -6.42490
     71       0.00000          -0.214543           -5.83802
     72       0.00000          -0.180073           -4.90003
     73       0.00000          -0.144054           -3.91991
     74       0.00000          -0.094445           -2.56998
     75       0.00000          -0.082911           -2.25613
     76       0.00000          -0.077072           -2.09723
     77       0.00000          -0.073840           -2.00929
     78       0.00000          -0.070163           -1.90923
     79       0.00000          -0.063453           -1.72665
     80       0.00000          -0.054429           -1.48108
     81       0.00000          -0.048410           -1.31731
     82       0.00000          -0.034918           -0.95016
     83       0.00000          -0.026185           -0.71252
     84       0.00000          -0.024790           -0.67457
     85       0.00000          -0.016910           -0.46014
     86       0.00000          -0.015678           -0.42662
     87       0.00000          -0.011034           -0.30024
     88       0.00000          -0.005895           -0.16040
     89       0.00000           0.002097            0.05706
     90       0.00000           0.002667            0.07257
     91       0.00000           0.007862            0.21393
     92       0.00000           0.016982            0.46210
     93       0.00000           0.028137            0.76565
     94       0.00000           0.035355            0.96207
     95       0.00000           0.037013            1.00718
     96       0.00000           0.041861            1.13909
     97       0.00000           0.044007            1.19750
     98       0.00000           0.049433            1.34515
     99       0.00000           0.056244            1.53048
    100       0.00000           0.058617            1.59505
    101       0.00000           0.059669            1.62367
    102       0.00000           0.062935            1.71254
    103       0.00000           0.064087            1.74389
    104       0.00000           0.066621            1.81285
    105       0.00000           0.071825            1.95446
    106       0.00000           0.079459            2.16219
    107       0.00000           0.080108            2.17985
    108       0.00000           0.086405            2.35120
    109       0.00000           0.088305            2.40291
    110       0.00000           0.091242            2.48282
    111       0.00000           0.097270            2.64684
    112       0.00000           0.098589            2.68275
    113       0.00000           0.105428            2.86884
    114       0.00000           0.109936            2.99150
    115       0.00000           0.114886            3.12620
    116       0.00000           0.118386            3.22144
    117       0.00000           0.122256            3.32676
    118       0.00000           0.126523            3.44286
    119       0.00000           0.129588            3.52626
    120       0.00000           0.132900            3.61640
    121       0.00000           0.140594            3.82574
    122       0.00000           0.141820            3.85911
    123       0.00000           0.146937            3.99837
    124       0.00000           0.148447            4.03944
    125       0.00000           0.151907            4.13360
    126       0.00000           0.152554            4.15121
    127       0.00000           0.156911            4.26976
    128       0.00000           0.160677            4.37225
    129       0.00000           0.167710            4.56362
    130       0.00000           0.169494            4.61217
    131       0.00000           0.171308            4.66153
    132       0.00000           0.174203            4.74031
    133       0.00000           0.181981            4.95194
    134       0.00000           0.185824            5.05652
    135       0.00000           0.188905            5.14036
    136       0.00000           0.197426            5.37224
    137       0.00000           0.199012            5.41539
    138       0.00000           0.205232            5.58464
    139       0.00000           0.211419            5.75300
    140       0.00000           0.213682            5.81459
    141       0.00000           0.216975            5.90420
    142       0.00000           0.220082            5.98873
    143       0.00000           0.230629            6.27572
    144       0.00000           0.231036            6.28681
    145       0.00000           0.234048            6.36876
    146       0.00000           0.237616            6.46586
    147       0.00000           0.249120            6.77889
    148       0.00000           0.253238            6.89096

  Highest occupied state (VBM) at     -9.67396630 eV
  | Occupation number:      2.00000000

  Lowest unoccupied state (CBM) at    -7.45111772 eV
  | Occupation number:      0.00000000

  Overall HOMO-LUMO gap:      2.22284858 eV.
  Calculating total energy contributions from superposition of free atom densities.

  Total energy components:
  | Sum of eigenvalues            :        -467.43253779 Ha      -12719.48651363 eV
  | XC energy correction          :        -110.81719451 Ha       -3015.48928907 eV
  | XC potential correction       :         142.33943931 Ha        3873.25321245 eV
  | Free-atom electrostatic energy:        -335.29486117 Ha       -9123.83738829 eV
  | Hartree energy correction     :           0.00000000 Ha           0.00000000 eV
  | Entropy correction            :           0.00000000 Ha           0.00000000 eV
  | ---------------------------
  | Total energy                  :        -771.20515417 Ha      -20985.55997854 eV
  | Total energy, T -> 0          :        -771.20515417 Ha      -20985.55997854 eV  <-- do not rely on this value for anything but (periodic) metals
  | Electronic free energy        :        -771.20515417 Ha      -20985.55997854 eV

  Derived energy quantities:
  | Kinetic energy                :         763.51400878 Ha       20776.27326418 eV
  | Electrostatic energy          :       -1423.90196844 Ha      -38746.34395364 eV
  | Energy correction for multipole
  | error in Hartree potential    :           0.00000000 Ha           0.00000000 eV
  | Sum of eigenvalues per atom                           :        -374.10254452 eV
  | Total energy (T->0) per atom                          :        -617.22235231 eV  <-- do not rely on this value for anything but (periodic) metals
  | Electronic free energy per atom                       :        -617.22235231 eV
  Initialize hartree_potential_storage
  Max. number of atoms included in rho_multipole:           34

  End scf initialization - timings             :  max(cpu_time)    wall_clock(cpu1)
  | Time for scf. initialization               :        3.384 s           3.447 s
  | Boundary condition initialization          :        0.000 s           0.005 s
  | Integration                                :        2.514 s           2.522 s
  | Solution of K.-S. eqns.                    :        0.125 s           0.143 s
  | Grid partitioning                          :        0.335 s           0.339 s
  | Preloading free-atom quantities on grid    :        0.013 s           0.016 s
  | Free-atom superposition energy             :        0.034 s           0.035 s
  | Total energy evaluation                    :        0.001 s           0.005 s

  Partial memory accounting:
  | Current value for overall tracked memory usage on task 0  :           1.938 MB
  | Peak value for overall tracked memory usage on task 0     :          16.268 MB after allocating zora_vector2
  | Largest tracked array allocation on task 0 so far         :           3.776 MB  when allocating hamiltonian_shell
  Note:  These values currently only include a subset of arrays which are explicitly tracked.
  The "true" memory usage will be greater.
------------------------------------------------------------

------------------------------------------------------------
          Begin self-consistency iteration #    1

  Date     :  20210620, Time     :  173846.150
------------------------------------------------------------
  Evaluating new KS density.
  Integration grid: deviation in total charge (<rho> - N_e) =  -5.684342E-14
  Pulay mixing of updated and previous charge densities.

  Evaluating partitioned Hartree potential by multipole expansion.
  | Analytical far-field extrapolation by fixed multipoles:
  | Hartree multipole sum: apparent total charge =   0.370806E-04
  Summing up the Hartree potential with load balancing.
  Time summed over all CPUs for potential: real work       13.123 s, elapsed       19.059 s
  | RMS charge density error from multipole expansion :   0.105421E-01

  Start compute_balanced_batch_distribution
  Done load balancing, time needed:      0.004 s
  Integrating Hamiltonian matrix: batch-based integration with load balancing
  Time summed over all CPUs for integration: real work       76.004 s, elapsed       84.552 s
  Time get_set_full_local_matrix_scalapack:     0.007918 s
  Start compute_balanced_batch_distribution
  Done load balancing, time needed:      0.005 s

  Updating Kohn-Sham eigenvalues and eigenvectors using ELSI and the ELPA eigensolver.
  Finished transformation to standard eigenproblem
  | Time :     0.006 s
  Starting ELPA eigensolver
  Finished solving standard eigenproblem
  | Time :     0.055 s
  Finished back-transformation of eigenvectors
  | Time :     0.002 s

  Obtaining occupation numbers and chemical potential using ELSI.
  | Chemical potential (Fermi level):    -4.14757479 eV
  Writing Kohn-Sham eigenvalues.

  State    Occupation    Eigenvalue [Ha]    Eigenvalue [eV]
      1       2.00000          -9.974689         -271.42509
      2       2.00000          -9.971992         -271.35171
      3       2.00000          -9.969720         -271.28988
      4       2.00000          -9.967524         -271.23013
      5       2.00000          -9.961879         -271.07651
      6       2.00000          -9.961702         -271.07171
      7       2.00000          -9.961542         -271.06734
      8       2.00000          -9.960064         -271.02712
      9       2.00000          -9.957184         -270.94877
     10       2.00000          -9.955537         -270.90395
     11       2.00000          -9.954613         -270.87881
     12       2.00000          -9.951536         -270.79508
     13       2.00000          -9.946730         -270.66428
     14       2.00000          -9.944658         -270.60790
     15       2.00000          -9.943709         -270.58209
     16       2.00000          -9.943069         -270.56468
     17       2.00000          -9.940673         -270.49947
     18       2.00000          -9.939325         -270.46280
     19       2.00000          -9.919529         -269.92413
     20       2.00000          -9.918589         -269.89855
     21       2.00000          -0.858545          -23.36220
     22       2.00000          -0.849028          -23.10323
     23       2.00000          -0.816403          -22.21545
     24       2.00000          -0.801982          -21.82303
     25       2.00000          -0.776941          -21.14165
     26       2.00000          -0.760753          -20.70114
     27       2.00000          -0.744004          -20.24538
     28       2.00000          -0.719436          -19.57686
     29       2.00000          -0.709045          -19.29411
     30       2.00000          -0.696358          -18.94886
     31       2.00000          -0.652204          -17.74738
     32       2.00000          -0.627677          -17.07995
     33       2.00000          -0.612224          -16.65948
     34       2.00000          -0.608396          -16.55529
     35       2.00000          -0.596853          -16.24119
     36       2.00000          -0.556207          -15.13517
     37       2.00000          -0.551343          -15.00281
     38       2.00000          -0.530448          -14.43421
     39       2.00000          -0.522106          -14.20722
     40       2.00000          -0.512695          -13.95114
     41       2.00000          -0.503546          -13.70218
     42       2.00000          -0.487204          -13.25748
     43       2.00000          -0.467256          -12.71468
     44       2.00000          -0.460325          -12.52608
     45       2.00000          -0.457688          -12.45432
     46       2.00000          -0.445226          -12.11521
     47       2.00000          -0.433682          -11.80109
     48       2.00000          -0.425400          -11.57573
     49       2.00000          -0.418125          -11.37776
     50       2.00000          -0.412476          -11.22405
     51       2.00000          -0.402635          -10.95627
     52       2.00000          -0.400043          -10.88573
     53       2.00000          -0.391786          -10.66103
     54       2.00000          -0.391351          -10.64920
     55       2.00000          -0.377794          -10.28030
     56       2.00000          -0.374548          -10.19197
     57       2.00000          -0.357734           -9.73444
     58       2.00000          -0.356663           -9.70530
     59       2.00000          -0.350305           -9.53227
     60       2.00000          -0.345932           -9.41329
     61       2.00000          -0.334607           -9.10511
     62       2.00000          -0.319995           -8.70749
     63       2.00000          -0.302629           -8.23496
     64       2.00000          -0.281852           -7.66957
     65       2.00000          -0.251359           -6.83981
     66       2.00000          -0.232642           -6.33050
     67       2.00000          -0.220396           -5.99729
     68       0.00000          -0.150004           -4.08183
     69       0.00000          -0.115589           -3.14533
     70       0.00000          -0.107359           -2.92139
     71       0.00000          -0.084471           -2.29858
     72       0.00000          -0.056050           -1.52518
     73       0.00000          -0.034949           -0.95100
     74       0.00000          -0.023325           -0.63472
     75       0.00000          -0.019270           -0.52436
     76       0.00000          -0.014938           -0.40649
     77       0.00000          -0.011575           -0.31496
     78       0.00000          -0.009052           -0.24632
     79       0.00000           0.009067            0.24672
     80       0.00000           0.010732            0.29203
     81       0.00000           0.023058            0.62743
     82       0.00000           0.024031            0.65392
     83       0.00000           0.029284            0.79685
     84       0.00000           0.042298            1.15099
     85       0.00000           0.044152            1.20144
     86       0.00000           0.048422            1.31763
     87       0.00000           0.051627            1.40484
     88       0.00000           0.062675            1.70547
     89       0.00000           0.064435            1.75338
     90       0.00000           0.069454            1.88993
     91       0.00000           0.085504            2.32668
     92       0.00000           0.091493            2.48965
     93       0.00000           0.093872            2.55439
     94       0.00000           0.097355            2.64917
     95       0.00000           0.099545            2.70875
     96       0.00000           0.104976            2.85654
     97       0.00000           0.105369            2.86725
     98       0.00000           0.109897            2.99045
     99       0.00000           0.116068            3.15838
    100       0.00000           0.122990            3.34674
    101       0.00000           0.126835            3.45137
    102       0.00000           0.129084            3.51257
    103       0.00000           0.135765            3.69435
    104       0.00000           0.139050            3.78374
    105       0.00000           0.148171            4.03194
    106       0.00000           0.153355            4.17301
    107       0.00000           0.155959            4.24385
    108       0.00000           0.157316            4.28079
    109       0.00000           0.160981            4.38051
    110       0.00000           0.167461            4.55686
    111       0.00000           0.169033            4.59961
    112       0.00000           0.172268            4.68766
    113       0.00000           0.175562            4.77727
    114       0.00000           0.180582            4.91387
    115       0.00000           0.182926            4.97767
    116       0.00000           0.188883            5.13977
    117       0.00000           0.189853            5.16616
    118       0.00000           0.192061            5.22624
    119       0.00000           0.196420            5.34486
    120       0.00000           0.199093            5.41759
    121       0.00000           0.201011            5.46978
    122       0.00000           0.205838            5.60113
    123       0.00000           0.209506            5.70094
    124       0.00000           0.210283            5.72208
    125       0.00000           0.213255            5.80297
    126       0.00000           0.220730            6.00637
    127       0.00000           0.225774            6.14361
    128       0.00000           0.227822            6.19935
    129       0.00000           0.229678            6.24986
    130       0.00000           0.236883            6.44591
    131       0.00000           0.240700            6.54978
    132       0.00000           0.244319            6.64827
    133       0.00000           0.246919            6.71900
    134       0.00000           0.258309            7.02895
    135       0.00000           0.266517            7.25229
    136       0.00000           0.267342            7.27474
    137       0.00000           0.271896            7.39867
    138       0.00000           0.272522            7.41569
    139       0.00000           0.282313            7.68212
    140       0.00000           0.286179            7.78732
    141       0.00000           0.289964            7.89033
    142       0.00000           0.298568            8.12446
    143       0.00000           0.301059            8.19224
    144       0.00000           0.317310            8.63445
    145       0.00000           0.318985            8.68004
    146       0.00000           0.319631            8.69761
    147       0.00000           0.324148            8.82051
    148       0.00000           0.330642            8.99722

  Highest occupied state (VBM) at     -5.99728826 eV
  | Occupation number:      2.00000000

  Lowest unoccupied state (CBM) at    -4.08182706 eV
  | Occupation number:      0.00000000

  Overall HOMO-LUMO gap:      1.91546120 eV.

  Total energy components:
  | Sum of eigenvalues            :        -445.50021882 Ha      -12122.67774927 eV
  | XC energy correction          :        -112.33748965 Ha       -3056.85862450 eV
  | XC potential correction       :         144.31351873 Ha        3926.97064683 eV
  | Free-atom electrostatic energy:        -335.29486117 Ha       -9123.83738829 eV
  | Hartree energy correction     :         -21.64592286 Ha        -589.01552988 eV
  | Entropy correction            :           0.00000000 Ha           0.00000000 eV
  | ---------------------------
  | Total energy                  :        -770.46497377 Ha      -20965.41864511 eV
  | Total energy, T -> 0          :        -770.46497377 Ha      -20965.41864511 eV  <-- do not rely on this value for anything but (periodic) metals
  | Electronic free energy        :        -770.46497377 Ha      -20965.41864511 eV

  Derived energy quantities:
  | Kinetic energy                :         770.41801924 Ha       20964.14094731 eV
  | Electrostatic energy          :       -1428.54550337 Ha      -38872.70096792 eV
  | Energy correction for multipole
  | error in Hartree potential    :          -0.04775122 Ha          -1.29937685 eV
  | Sum of eigenvalues per atom                           :        -356.54934557 eV
  | Total energy (T->0) per atom                          :        -616.62996015 eV  <-- do not rely on this value for anything but (periodic) metals
  | Electronic free energy per atom                       :        -616.62996015 eV

  Self-consistency convergence accuracy:
  | Change of charge density      :  0.9123E+00
  | Change of sum of eigenvalues  :  0.5968E+03 eV
  | Change of total energy        :  0.2014E+02 eV

  End self-consistency iteration #     1       :  max(cpu_time)    wall_clock(cpu1)
  | Time for this iteration                    :        2.535 s           2.540 s
  | Charge density update                      :        0.560 s           0.561 s
  | Density mixing                             :        0.002 s           0.003 s
  | Hartree multipole update                   :        0.008 s           0.009 s
  | Hartree multipole summation                :        0.348 s           0.350 s
  | Integration                                :        1.513 s           1.513 s
  | Solution of K.-S. eqns.                    :        0.090 s           0.090 s
  | Total energy evaluation                    :        0.002 s           0.000 s

  Partial memory accounting:
  | Current value for overall tracked memory usage on task 0  :           1.938 MB
  | Peak value for overall tracked memory usage on task 0     :          16.420 MB after allocating zora_vector2
  | Largest tracked array allocation on task 0 so far         :           3.776 MB  when allocating hamiltonian_shell
  Note:  These values currently only include a subset of arrays which are explicitly tracked.
  The "true" memory usage will be greater.
------------------------------------------------------------

------------------------------------------------------------
          Begin self-consistency iteration #    2

  Date     :  20210620, Time     :  173848.691
------------------------------------------------------------
  Evaluating new KS density.
  Integration grid: deviation in total charge (<rho> - N_e) =   1.705303E-13
  Pulay mixing of updated and previous charge densities.

  Evaluating partitioned Hartree potential by multipole expansion.
  | Analytical far-field extrapolation by fixed multipoles:
  | Hartree multipole sum: apparent total charge =   0.375210E-04
  Summing up the Hartree potential with load balancing.
  Time summed over all CPUs for potential: real work       13.320 s, elapsed       14.955 s
  | RMS charge density error from multipole expansion :   0.182924E-01

  Integrating Hamiltonian matrix: batch-based integration with load balancing
  Time summed over all CPUs for integration: real work       77.483 s, elapsed       81.133 s
  Time get_set_full_local_matrix_scalapack:     0.011290 s

  Updating Kohn-Sham eigenvalues and eigenvectors using ELSI and the ELPA eigensolver.
  Finished transformation to standard eigenproblem
  | Time :     0.008 s
  Starting ELPA eigensolver
  Finished solving standard eigenproblem
  | Time :     0.047 s
  Finished back-transformation of eigenvectors
  | Time :     0.003 s

  Obtaining occupation numbers and chemical potential using ELSI.
  | Chemical potential (Fermi level):    -3.41721918 eV
  Highest occupied state (VBM) at     -5.17502690 eV
  | Occupation number:      2.00000000

  Lowest unoccupied state (CBM) at    -3.01341218 eV
  | Occupation number:      0.00000000

  Overall HOMO-LUMO gap:      2.16161472 eV.

  Checking to see if s.c.f. parameters should be adjusted.

  Total energy components:
  | Sum of eigenvalues            :        -439.20326282 Ha      -11951.32885836 eV
  | XC energy correction          :        -112.97137189 Ha       -3074.10743803 eV
  | XC potential correction       :         145.12848657 Ha        3949.14704988 eV
  | Free-atom electrostatic energy:        -335.29486117 Ha       -9123.83738829 eV
  | Hartree energy correction     :         -28.03529151 Ha        -762.87909695 eV
  | Entropy correction            :           0.00000000 Ha           0.00000000 eV
  | ---------------------------
  | Total energy                  :        -770.37630084 Ha      -20963.00573175 eV
  | Total energy, T -> 0          :        -770.37630084 Ha      -20963.00573175 eV  <-- do not rely on this value for anything but (periodic) metals
  | Electronic free energy        :        -770.37630084 Ha      -20963.00573175 eV

  Derived energy quantities:
  | Kinetic energy                :         770.43706866 Ha       20964.65930840 eV
  | Electrostatic energy          :       -1427.84199761 Ha      -38853.55760212 eV
  | Energy correction for multipole
  | error in Hartree potential    :          -0.07608589 Ha          -2.07040237 eV
  | Sum of eigenvalues per atom                           :        -351.50967230 eV
  | Total energy (T->0) per atom                          :        -616.55899211 eV  <-- do not rely on this value for anything but (periodic) metals
  | Electronic free energy per atom                       :        -616.55899211 eV

  Self-consistency convergence accuracy:
  | Change of charge density      :  0.4438E+00
  | Change of sum of eigenvalues  :  0.1713E+03 eV
  | Change of total energy        :  0.2413E+01 eV

  End self-consistency iteration #     2       :  max(cpu_time)    wall_clock(cpu1)
  | Time for this iteration                    :        2.374 s           2.379 s
  | Charge density update                      :        0.559 s           0.558 s
  | Density mixing                             :        0.003 s           0.004 s
  | Hartree multipole update                   :        0.007 s           0.008 s
  | Hartree multipole summation                :        0.269 s           0.269 s
  | Integration                                :        1.451 s           1.451 s
  | Solution of K.-S. eqns.                    :        0.081 s           0.082 s
  | Total energy evaluation                    :        0.002 s           0.003 s

  Partial memory accounting:
  | Current value for overall tracked memory usage on task 0  :           1.938 MB
  | Peak value for overall tracked memory usage on task 0     :          16.435 MB after allocating zora_vector2
  | Largest tracked array allocation on task 0 so far         :           3.776 MB  when allocating hamiltonian_shell
  Note:  These values currently only include a subset of arrays which are explicitly tracked.
  The "true" memory usage will be greater.
------------------------------------------------------------

------------------------------------------------------------
          Begin self-consistency iteration #    3

  Date     :  20210620, Time     :  173851.073
------------------------------------------------------------
  Evaluating new KS density.
  Integration grid: deviation in total charge (<rho> - N_e) =   2.273737E-13
  Pulay mixing of updated and previous charge densities.

  Evaluating partitioned Hartree potential by multipole expansion.
  | Analytical far-field extrapolation by fixed multipoles:
  | Hartree multipole sum: apparent total charge =   0.383891E-04
  Summing up the Hartree potential with load balancing.
  Time summed over all CPUs for potential: real work       13.322 s, elapsed       14.964 s
  | RMS charge density error from multipole expansion :   0.218218E-01

  Integrating Hamiltonian matrix: batch-based integration with load balancing
  Time summed over all CPUs for integration: real work       77.316 s, elapsed       80.815 s
  Time get_set_full_local_matrix_scalapack:     0.011167 s

  Updating Kohn-Sham eigenvalues and eigenvectors using ELSI and the ELPA eigensolver.
  Finished transformation to standard eigenproblem
  | Time :     0.007 s
  Starting ELPA eigensolver
  Finished solving standard eigenproblem
  | Time :     0.046 s
  Finished back-transformation of eigenvectors
  | Time :     0.002 s

  Obtaining occupation numbers and chemical potential using ELSI.
  | Chemical potential (Fermi level):    -3.28602155 eV
  Highest occupied state (VBM) at     -4.78876527 eV
  | Occupation number:      2.00000000

  Lowest unoccupied state (CBM) at    -2.99900445 eV
  | Occupation number:      0.00000000

  Overall HOMO-LUMO gap:      1.78976082 eV.

  Total energy components:
  | Sum of eigenvalues            :        -438.08485651 Ha      -11920.89547423 eV
  | XC energy correction          :        -113.06058731 Ha       -3076.53511305 eV
  | XC potential correction       :         145.23963262 Ha        3952.17148778 eV
  | Free-atom electrostatic energy:        -335.29486117 Ha       -9123.83738829 eV
  | Hartree energy correction     :         -29.17762994 Ha        -793.96370718 eV
  | Entropy correction            :           0.00000000 Ha           0.00000000 eV
  | ---------------------------
  | Total energy                  :        -770.37830232 Ha      -20963.06019496 eV
  | Total energy, T -> 0          :        -770.37830232 Ha      -20963.06019496 eV  <-- do not rely on this value for anything but (periodic) metals
  | Electronic free energy        :        -770.37830232 Ha      -20963.06019496 eV

  Derived energy quantities:
  | Kinetic energy                :         768.95340342 Ha       20924.28672311 eV
  | Electrostatic energy          :       -1426.27111844 Ha      -38810.81180503 eV
  | Energy correction for multipole
  | error in Hartree potential    :          -0.08583413 Ha          -2.33566562 eV
  | Sum of eigenvalues per atom                           :        -350.61457277 eV
  | Total energy (T->0) per atom                          :        -616.56059397 eV  <-- do not rely on this value for anything but (periodic) metals
  | Electronic free energy per atom                       :        -616.56059397 eV

  Self-consistency convergence accuracy:
[...]
  |   Number of spins           :                     1
  |   Number of k-points        :                     1
  |   Number of states          :                   148
  |
  | Matrix Properties
  |   Matrix format             :           BLACS_DENSE
  |   Number of basis functions :                   990
  |   Matrix sparsity           :        0.14587083E+00
  |
  | Computational Details
  |   Parallel mode             :            MULTI_PROC
  |   Number of MPI tasks       :                    56
  |   Solver requested          :                  ELPA
  |   Number of ELSI calls      :                    18
  |
  |------------------------------------------------------
  | ELSI Project (c)  elsi-interchange.org
  |------------------------------------------------------

------------------------------------------------------------
          Post-processing: scaled ZORA corrections to eigenvalues and total energy.

  Date     :  20210620, Time     :  173926.704
------------------------------------------------------------
  Computing correction matrix for scaled ZORA eigenvalues.
  Evaluating scaled zora correction for each Kohn-Sham eigenstate.
  Evaluating scaled zora correction for each Kohn-Sham eigenstate.
  Time get_set_sparse_local_matrix_scalapack:     1.446547 s
  Writing Kohn-Sham eigenvalues.

  State    Occupation    Eigenvalue [Ha]    Eigenvalue [eV]
      1       2.00000          -9.910028         -269.66558
      2       2.00000          -9.908670         -269.62863
      3       2.00000          -9.908388         -269.62097
      4       2.00000          -9.906508         -269.56980
      5       2.00000          -9.904452         -269.51386
      6       2.00000          -9.904042         -269.50268
      7       2.00000          -9.904008         -269.50176
      8       2.00000          -9.902620         -269.46401
      9       2.00000          -9.902155         -269.45136
     10       2.00000          -9.900953         -269.41863
     11       2.00000          -9.898341         -269.34757
     12       2.00000          -9.897088         -269.31346
     13       2.00000          -9.896606         -269.30036
     14       2.00000          -9.895294         -269.26465
     15       2.00000          -9.894415         -269.24074
     16       2.00000          -9.893658         -269.22014
     17       2.00000          -9.893290         -269.21012
     18       2.00000          -9.892947         -269.20079
     19       2.00000          -9.881119         -268.87894
     20       2.00000          -9.880314         -268.85702
     21       2.00000          -0.812507          -22.10944
     22       2.00000          -0.803058          -21.85233
     23       2.00000          -0.764607          -20.80601
     24       2.00000          -0.751229          -20.44198
     25       2.00000          -0.719862          -19.58845
     26       2.00000          -0.708799          -19.28740
     27       2.00000          -0.693026          -18.85819
     28       2.00000          -0.666754          -18.14330
     29       2.00000          -0.654536          -17.81083
     30       2.00000          -0.641920          -17.46753
     31       2.00000          -0.597986          -16.27203
     32       2.00000          -0.571664          -15.55577
     33       2.00000          -0.556874          -15.15331
     34       2.00000          -0.552505          -15.03442
     35       2.00000          -0.541828          -14.74389
     36       2.00000          -0.501306          -13.64123
     37       2.00000          -0.494874          -13.46620
     38       2.00000          -0.472130          -12.84732
     39       2.00000          -0.464653          -12.64385
     40       2.00000          -0.453729          -12.34660
     41       2.00000          -0.445324          -12.11788
     42       2.00000          -0.429079          -11.67582
     43       2.00000          -0.408752          -11.12271
     44       2.00000          -0.402702          -10.95807
     45       2.00000          -0.399255          -10.86429
     46       2.00000          -0.388317          -10.56663
     47       2.00000          -0.376057          -10.23304
     48       2.00000          -0.368341          -10.02308
     49       2.00000          -0.367586          -10.00252
     50       2.00000          -0.359847           -9.79194
     51       2.00000          -0.356391           -9.69788
     52       2.00000          -0.353255           -9.61256
     53       2.00000          -0.340854           -9.27511
     54       2.00000          -0.331982           -9.03370
     55       2.00000          -0.320200           -8.71309
     56       2.00000          -0.319010           -8.68071
     57       2.00000          -0.312543           -8.50472
     58       2.00000          -0.299245           -8.14286
     59       2.00000          -0.296997           -8.08171
     60       2.00000          -0.293612           -7.98958
     61       2.00000          -0.288297           -7.84497
     62       2.00000          -0.278219           -7.57074
     63       2.00000          -0.265522           -7.22523
     64       2.00000          -0.245176           -6.67157
     65       2.00000          -0.213782           -5.81730
     66       2.00000          -0.193774           -5.27287
     67       2.00000          -0.183031           -4.98052
     68       0.00000          -0.109118           -2.96926
     69       0.00000          -0.075034           -2.04177
     70       0.00000          -0.067183           -1.82815
     71       0.00000          -0.046352           -1.26131
     72       0.00000          -0.019582           -0.53285
     73       0.00000          -0.010481           -0.28521
     74       0.00000          -0.003068           -0.08348
     75       0.00000           0.002128            0.05790
     76       0.00000           0.008962            0.24387
     77       0.00000           0.012097            0.32918
     78       0.00000           0.022420            0.61008
     79       0.00000           0.029691            0.80793
     80       0.00000           0.031065            0.84532
     81       0.00000           0.044094            1.19985
     82       0.00000           0.049723            1.35304
     83       0.00000           0.065651            1.78646
     84       0.00000           0.069078            1.87971
     85       0.00000           0.072159            1.96353
     86       0.00000           0.080411            2.18809
     87       0.00000           0.083572            2.27412
     88       0.00000           0.087971            2.39381
     89       0.00000           0.089230            2.42806
     90       0.00000           0.092763            2.52420
     91       0.00000           0.109911            2.99083
     92       0.00000           0.111107            3.02337
     93       0.00000           0.119728            3.25797
     94       0.00000           0.120898            3.28980
     95       0.00000           0.122765            3.34060
     96       0.00000           0.127499            3.46943
     97       0.00000           0.132916            3.61684
     98       0.00000           0.137463            3.74056
     99       0.00000           0.142335            3.87313
    100       0.00000           0.145811            3.96772
    101       0.00000           0.156778            4.26613
    102       0.00000           0.158645            4.31696
    103       0.00000           0.159654            4.34440
    104       0.00000           0.168319            4.58020
    105       0.00000           0.175463            4.77458
    106       0.00000           0.180548            4.91297
    107       0.00000           0.182904            4.97707
    108       0.00000           0.185984            5.06089
    109       0.00000           0.189944            5.16865
    110       0.00000           0.194090            5.28145
    111       0.00000           0.196601            5.34980
    112       0.00000           0.203706            5.54311
    113       0.00000           0.208393            5.67065
    114       0.00000           0.209470            5.69996
    115       0.00000           0.218069            5.93396
    116       0.00000           0.218470            5.94488
    117       0.00000           0.220604            6.00294
    118       0.00000           0.225193            6.12782
    119       0.00000           0.228434            6.21601
    120       0.00000           0.228560            6.21942
    121       0.00000           0.229826            6.25387
    122       0.00000           0.233782            6.36153
    123       0.00000           0.234715            6.38692
    124       0.00000           0.239922            6.52861
    125       0.00000           0.244689            6.65833
    126       0.00000           0.248675            6.76680
    127       0.00000           0.251746            6.85036
    128       0.00000           0.254887            6.93584
    129       0.00000           0.257835            7.01604
    130       0.00000           0.265978            7.23764
    131       0.00000           0.273867            7.45230
    132       0.00000           0.276972            7.53678
    133       0.00000           0.280361            7.62901
    134       0.00000           0.280959            7.64530
    135       0.00000           0.291124            7.92187
    136       0.00000           0.299670            8.15444
    137       0.00000           0.300968            8.18977
    138       0.00000           0.308105            8.38398
    139       0.00000           0.314273            8.55181
    140       0.00000           0.320060            8.70926
    141       0.00000           0.321317            8.74347
    142       0.00000           0.322451            8.77433
    143       0.00000           0.340062            9.25356
    144       0.00000           0.345718            9.40748
    145       0.00000           0.347285            9.45011
    146       0.00000           0.350014            9.52436
    147       0.00000           0.356972            9.71370
    148       0.00000           0.360793            9.81768

  Highest occupied state (VBM) at     -4.98052010 eV
  | Occupation number:      2.00000000

  Lowest unoccupied state (CBM) at    -2.96926308 eV
  | Occupation number:      0.00000000

  Overall HOMO-LUMO gap:      2.01125702 eV.

  Total energy components:
  | Sum of eigenvalues            :        -438.47179147 Ha      -11931.42451007 eV
  | XC energy correction          :        -113.01987899 Ha       -3075.42738333 eV
  | XC potential correction       :         145.18602919 Ha        3950.71286436 eV
  | Free-atom electrostatic energy:        -335.29486117 Ha       -9123.83738829 eV
  | Hartree energy correction     :         -28.59728327 Ha        -778.17167071 eV
  | Entropy correction            :           0.00000000 Ha           0.00000000 eV
  | ---------------------------
  | Total energy                  :        -770.19778571 Ha      -20958.14808803 eV
  | Total energy, T -> 0          :        -770.19778571 Ha      -20958.14808803 eV  <-- do not rely on this value for anything but (periodic) metals
  | Electronic free energy        :        -770.19778571 Ha      -20958.14808803 eV

  Derived energy quantities:
  | Kinetic energy                :         768.38079294 Ha       20908.70519922 eV
  | Electrostatic energy          :       -1425.55869967 Ha      -38791.42590393 eV
  | Energy correction for multipole
  | error in Hartree potential    :          -0.08784420 Ha          -2.39036233 eV
  | Sum of eigenvalues per atom                           :        -350.92425030 eV
  | Total energy (T->0) per atom                          :        -616.41612024 eV  <-- do not rely on this value for anything but (periodic) metals
  | Electronic free energy per atom                       :        -616.41612024 eV
  End evaluation of scaled ZORA corrections.
  | Time for scaled ZORA corrections           :        2.379 s           5.635 s
------------------------------------------------------------

  Energy and forces in a compact form:
  | Total energy uncorrected      :         -0.209581480880341E+05 eV
  | Total energy corrected        :         -0.209581480880341E+05 eV  <-- do not rely on this value for anything but (periodic) metals
  | Electronic free energy        :         -0.209581480880341E+05 eV

  ------------------------------------ 
  Start decomposition of the XC Energy 
  ------------------------------------ 
  X and C from original XC functional choice 
  Hartree-Fock Energy :          0.000000000 Ha              0.000000000 eV
  X Energy            :       -108.557135226 Ha          -2953.989946852 eV
  C Energy            :         -4.462743764 Ha           -121.437436475 eV
  Total XC Energy     :       -113.019878990 Ha          -3075.427383328 eV
  ------------------------------------ 
  LDA X and C from self-consistent density 
  X Energy LDA        :        -98.293018758 Ha          -2674.689127092 eV
  C Energy LDA        :         -8.620463938 Ha           -234.574758781 eV
  ------------------------------------ 
  End decomposition of the XC Energy 
  ------------------------------------ 

------------------------------------------------------------

------------------------------------------------------------------------------
  Final output of selected total energy values:

  The following output summarizes some interesting total energy values
  at the end of a run (AFTER all relaxation, molecular dynamics, etc.).

  | Total energy of the DFT / Hartree-Fock s.c.f. calculation      :         -20958.148088034 eV
  | Final zero-broadening corrected energy (caution - metals only) :         -20958.148088034 eV
  | For reference only, the value of 1 Hartree used in FHI-aims is :             27.211384500 eV

  Before relying on these values, please be sure to understand exactly which
  total energy value is referred to by a given number. Different objects may
  all carry the same name 'total energy'. Definitions:

  Total energy of the DFT / Hartree-Fock s.c.f. calculation:
  | Note that this energy does not include ANY quantities calculated after the
  | s.c.f. cycle, in particular not ANY RPA, MP2, etc. many-body perturbation terms.
  | Scalar relativistic effects have been included in the 'scaled ZORA' approximation.

  Final zero-broadening corrected energy:
  | For metallic systems only, a broadening of the occupation numbers at the Fermi
  | level can be extrapolated back to zero broadening by an electron-gas inspired
  | formula. For all systems that are not real metals, this value can be
  | meaningless and should be avoided.

------------------------------------------------------------------------------
  Methods described in the following list of references were used in this FHI-aims run.
  If you publish the results, please make sure to cite these reference if they apply.
  FHI-aims is an academic code, and for our developers (often, Ph.D. students
  and postdocs), scientific credit in the community is essential.
  Thank you for helping us!

  For any use of FHI-aims, please cite:

    Volker Blum, Ralf Gehrke, Felix Hanke, Paula Havu, Ville Havu,
    Xinguo Ren, Karsten Reuter, and Matthias Scheffler
    'Ab initio molecular simulations with numeric atom-centered orbitals'
    Computer Physics Communications 180, 2175-2196 (2009)
    http://dx.doi.org/10.1016/j.cpc.2009.06.022


  The scalable eigensolver library ELPA was used in your run.
  ELPA is essential especially for large systems on hundreds or thousands of CPUs.
  For ELPA, please cite:

    Andreas Marek, Volker Blum, Rainer Johanni, Ville Havu, Bruno Lang,
    Thomas Auckenthaler, Alexander Heinecke, Hans-Joachim Bungartz, and Hermann Lederer,
    'The ELPA Library - Scalable Parallel Eigenvalue Solutions
    for Electronic Structure Theory and Computational Science'
    The Journal of Physics: Condensed Matter 26, 213201 (2014).
    http://dx.doi.org/10.1088/0953-8984/26/21/213201


  The ELSI infrastructure was used in your run to solve the Kohn-Sham electronic structure.
  Please check out http://elsi-interchange.org to learn more.
  If scalability is important for your project, please acknowledge ELSI by citing:

    V. W-z. Yu, F. Corsetti, A. Garcia, W. P. Huhn, M. Jacquelin, W. Jia,
    B. Lange, L. Lin, J. Lu, W. Mi, A. Seifitokaldani, A. Vazquez-Mayagoitia,
    C. Yang, H. Yang, and V. Blum
    'ELSI: A unified software interface for Kohn-Sham electronic structure solvers'
    Computer Physics Communications 222, 267-285 (2018).
    http://dx.doi.org/10.1016/j.cpc.2017.09.007


  For the real-space grid partitioning and parallelization used in this calculation, please cite:

    Ville Havu, Volker Blum, Paula Havu, and Matthias Scheffler,
    'Efficient O(N) integration for all-electron electronic structure calculation'
    'using numerically tabulated basis functions'
    Journal of Computational Physics 228, 8367-8379 (2009).
    http://dx.doi.org/10.1016/j.jcp.2009.08.008

  Of course, there are many other important community references, e.g., those cited in the
  above references. Our list is limited to references that describe implementations in the
  FHI-aims code. The reason is purely practical (length of this list) - please credit others as well.

------------------------------------------------------------
          Leaving FHI-aims.
          Date     :  20210620, Time     :  173932.402

          Computational steps:
          | Number of self-consistency cycles          :           17
          | Number of SCF (re)initializations          :            1

          Detailed time accounting                     :  max(cpu_time)    wall_clock(cpu1)
          | Total time                                 :       46.634 s          50.089 s
          | Preparation time                           :        0.204 s           0.209 s
          | Boundary condition initalization           :        0.000 s           0.005 s
          | Grid partitioning                          :        0.335 s           0.339 s
          | Preloading free-atom quantities on grid    :        0.013 s           0.016 s
          | Free-atom superposition energy             :        0.034 s           0.035 s
          | Total time for integrations                :       27.202 s          27.212 s
          | Total time for solution of K.-S. equations :        1.451 s           1.475 s
          | Total time for density update              :        9.549 s           9.514 s
          | Total time for mixing                      :        0.088 s           0.090 s
          | Total time for Hartree multipole update    :        0.118 s           0.125 s
          | Total time for Hartree multipole sum       :        4.653 s           4.656 s
          | Total time for total energy evaluation     :        0.009 s           0.035 s
          | Total time for scaled ZORA corrections     :        2.379 s           5.635 s

          Partial memory accounting:
          | Residual value for overall tracked memory usage across tasks :     0.000000 MB (should be 0.000000 MB)
          | Peak values for overall tracked memory usage (after allocating zora_vector2):
          |   Minimum:       16.252 MB (on task 35)
          |   Maximum:       19.496 MB (on task 18)
          |   Average:       17.978 MB
          | Largest tracked array allocation (hamiltonian_shell):
          |   Minimum:        3.776 MB (on task  1)
          |   Maximum:        3.776 MB (on task  1)
          |   Average:        3.776 MB
          Note:  These values currently only include a subset of arrays which are explicitly tracked.
          The "true" memory usage will be greater.

          Have a nice day.
------------------------------------------------------------
