  MPI-parallelism will be employed.
------------------------------------------------------------
          Invoking FHI-aims ...
          Version 180607
          Git rev. (modified): 6724847 Fix JSON memory corruption in scf_solver
          Compiled on 2018/06/27 at 16:00:31 on host coe.psc.edu.

          When using FHI-aims, please cite the following reference:

          Volker Blum, Ralf Gehrke, Felix Hanke, Paula Havu,
          Ville Havu, Xinguo Ren, Karsten Reuter, and Matthias Scheffler,
          'Ab Initio Molecular Simulations with Numeric Atom-Centered Orbitals',
          Computer Physics Communications 180, 2175-2196 (2009)

          For any questions about FHI-aims, please visit the aimsclub website
          with its forums and wiki. Contributions to both the forums and the
          wiki are warmly encouraged - they are for you, and everyone is welcome there.

------------------------------------------------------------



  Date     :  20210620, Time     :  174013.756
  Time zero on CPU 1             :   0.222489000000000E+00  s.
  Internal wall clock time zero  :           393442813.756  s.

  FHI-aims created a unique identifier for this run for later identification
  aims_uuid : 991CB397-80DF-46FA-A0E8-29C839789868

  Using       56 parallel tasks.
  Task        0 on host d001 reporting.
  Task        1 on host d001 reporting.
  Task        2 on host d001 reporting.
  Task        3 on host d001 reporting.
  Task        4 on host d001 reporting.
  Task        5 on host d001 reporting.
  Task        6 on host d001 reporting.
  Task        7 on host d001 reporting.
  Task        8 on host d001 reporting.
  Task        9 on host d001 reporting.
  Task       10 on host d001 reporting.
  Task       11 on host d001 reporting.
  Task       12 on host d001 reporting.
  Task       13 on host d001 reporting.
  Task       14 on host d001 reporting.
  Task       15 on host d001 reporting.
  Task       16 on host d001 reporting.
  Task       17 on host d001 reporting.
  Task       18 on host d001 reporting.
  Task       19 on host d001 reporting.
  Task       20 on host d001 reporting.
  Task       21 on host d001 reporting.
  Task       22 on host d001 reporting.
  Task       23 on host d001 reporting.
  Task       24 on host d001 reporting.
  Task       25 on host d001 reporting.
  Task       26 on host d001 reporting.
  Task       27 on host d001 reporting.
  Task       28 on host d001 reporting.
  Task       29 on host d001 reporting.
  Task       30 on host d001 reporting.
  Task       31 on host d001 reporting.
  Task       32 on host d001 reporting.
  Task       33 on host d001 reporting.
  Task       34 on host d001 reporting.
  Task       35 on host d001 reporting.
  Task       36 on host d001 reporting.
  Task       37 on host d001 reporting.
  Task       38 on host d001 reporting.
  Task       39 on host d001 reporting.
  Task       40 on host d001 reporting.
  Task       41 on host d001 reporting.
  Task       42 on host d001 reporting.
  Task       43 on host d001 reporting.
  Task       44 on host d001 reporting.
  Task       45 on host d001 reporting.
  Task       46 on host d001 reporting.
  Task       47 on host d001 reporting.
  Task       48 on host d001 reporting.
  Task       49 on host d001 reporting.
  Task       50 on host d001 reporting.
  Task       51 on host d001 reporting.
  Task       52 on host d001 reporting.
  Task       53 on host d001 reporting.
  Task       54 on host d001 reporting.
  Task       55 on host d001 reporting.

  Performing system and environment tests:
  *** Environment variable OMP_NUM_THREADS is not set
  *** For performance reasons you might want to set it to 1
  | Stacksize not measured: no C compiler
  | Checking for scalapack...
  | Testing pdtran()...
  | All pdtran() tests passed.

  Obtaining array dimensions for all initial allocations:
  
  -----------------------------------------------------------------------
  Parsing control.in (first pass over file, find array dimensions only).
  The contents of control.in will be repeated verbatim below
  unless switched off by setting 'verbatim_writeout .false.' .
  in the first line of control.in .
  -----------------------------------------------------------------------
  
  #===============================================================================
  # FHI-aims file: ./Runs/es/control.in
  # Created using the Atomic Simulation Environment (ASE)
  # Mon Jan 13 16:04:38 2020
  #===============================================================================
  xc                                 pbe
  relativistic                       zora scalar 1e-12
  occupation_type                    gaussian 0.0001
  load_balancing                     .true.
  KS_method                          scalapack_fast
  mixer                              pulay
  n_max_pulay                        5
  charge_mix_param                   0.4
  sc_accuracy_etot                   1e-6
  sc_accuracy_eev                    1e-4
  sc_accuracy_rho                    1e-6
  sc_iter_limit                      100
  prodbas_threshold                  1e-4
  basis_threshold                    1e-5
  override_illconditioning           .true.
  use_logsbt                         .true.
  spin                               none
  charge                             0
  #===============================================================================
  
  ################################################################################
  #
  #  FHI-aims code project
  # Volker Blum, Fritz Haber Institute Berlin, 2009
  #
  #  Suggested "tight" defaults for H atom (to be pasted into control.in file)
  #
  ################################################################################
    species        H
  #     global species definitions
      nucleus             1
      mass                1.00794
  #
      l_hartree           6
  #
      cut_pot             4.0  2.0  1.0
      basis_dep_cutoff    1e-4
  #
      radial_base         24 7.0
      radial_multiplier   2
      angular_grids       specified
        division   0.1930   50
        division   0.3175  110
        division   0.4293  194
        division   0.5066  302
        division   0.5626  434
  #      division   0.5922  590
  #      division   0.6227  974
  #      division   0.6868 1202
  #      outer_grid  770
        outer_grid  434
  ################################################################################
  #
  #  Definition of "minimal" basis
  #
  ################################################################################
  #     valence basis states
      valence      1  s   1.
  #     ion occupancy
      ion_occ      1  s   0.5
  ################################################################################
  #
  #  Suggested additional basis functions. For production calculations,
  #  uncomment them one after another (the most important basis functions are
  #  listed first).
  #
  #  Basis constructed for dimers: 0.5 A, 0.7 A, 1.0 A, 1.5 A, 2.5 A
  #
  ################################################################################
  #  "First tier" - improvements: -1014.90 meV to -62.69 meV
       hydro 2 s 2.1
       hydro 2 p 3.5
  #  "Second tier" - improvements: -12.89 meV to -1.83 meV
       hydro 1 s 0.85
       hydro 2 p 3.7
       hydro 2 s 1.2
       hydro 3 d 7
  #  "Third tier" - improvements: -0.25 meV to -0.12 meV
  #     hydro 4 f 11.2
  #     hydro 3 p 4.8
  #     hydro 4 d 9
  #     hydro 3 s 3.2
  ################################################################################
  #
  # For methods that use the localized form of the "resolution of identity" for
  # the two-electron Coulomb operator (RI_method LVL), particularly Hartree-Fock and
  # hybrid density functional calculations, the highest accuracy can be obtained by
  # uncommenting the line beginning with "for_aux"  below, thus adding an extra g radial
  # function to the construction of the product basis set for the expansion.
  # See Ref. New J. Phys. 17, 093020 (2015) for more information, particularly Figs. 1 and 6.
  #
  ################################################################################
  #
  # for_aux hydro 5 g 6.0
  ################################################################################
  #
  #  FHI-aims code project
  # Volker Blum, Fritz Haber Institute Berlin, 2009
  #
  #  Suggested "tight" defaults for C atom (to be pasted into control.in file)
  #
  ################################################################################
    species        C
  #     global species definitions
      nucleus             6
      mass                12.0107
  #
      l_hartree           6
  #
      cut_pot             4.0  2.0  1.0
      basis_dep_cutoff    1e-4
  #
      radial_base         34 7.0
      radial_multiplier   2
      angular_grids specified
        division   0.2187   50
        division   0.4416  110
        division   0.6335  194
        division   0.7727  302
        division   0.8772  434
  #      division   0.9334  590
  #      division   0.9924  770
  #      division   1.0230  974
  #      division   1.5020 1202
  #     outer_grid  974
        outer_grid  434
  ################################################################################
  #
  #  Definition of "minimal" basis
  #
  ################################################################################
  #     valence basis states
      valence      2  s   2.
      valence      2  p   2.
  #     ion occupancy
      ion_occ      2  s   1.
      ion_occ      2  p   1.
  ################################################################################
  #
  #  Suggested additional basis functions. For production calculations,
  #  uncomment them one after another (the most important basis functions are
  #  listed first).
  #
  #  Constructed for dimers: 1.0 A, 1.25 A, 1.5 A, 2.0 A, 3.0 A
  #
  ################################################################################
  #  "First tier" - improvements: -1214.57 meV to -155.61 meV
       hydro 2 p 1.7
       hydro 3 d 6
       hydro 2 s 4.9
  #  "Second tier" - improvements: -67.75 meV to -5.23 meV
       hydro 4 f 9.8
       hydro 3 p 5.2
       hydro 3 s 4.3
       hydro 5 g 14.4
       hydro 3 d 6.2
  #  "Third tier" - improvements: -2.43 meV to -0.60 meV
  #     hydro 2 p 5.6
  #     hydro 2 s 1.4
  #     hydro 3 d 4.9
  #     hydro 4 f 11.2
  #  "Fourth tier" - improvements: -0.39 meV to -0.18 meV
  #     hydro 2 p 2.1
  #     hydro 5 g 16.4
  #     hydro 4 d 13.2
  #     hydro 3 s 13.6
  #     hydro 4 f 17.6
  #  Further basis functions - improvements: -0.08 meV and below
  #     hydro 3 s 2
  #     hydro 3 p 6
  #     hydro 4 d 20
  ################################################################################
  #
  # For methods that use the localized form of the "resolution of identity" for
  # the two-electron Coulomb operator (RI_method LVL), particularly Hartree-Fock and
  # hybrid density functional calculations, the highest accuracy can be obtained by
  # uncommenting the line beginning with "for_aux"  below, thus adding an extra g radial
  # function to the construction of the product basis set for the expansion.
  # See Ref. New J. Phys. 17, 093020 (2015) for more information, particularly Figs. 1 and 6.
  #
  ################################################################################
  #
  # for_aux hydro 5 g 6.0
  
  -----------------------------------------------------------------------
  Completed first pass over input file control.in .
  -----------------------------------------------------------------------
  
  
  -----------------------------------------------------------------------
  Parsing geometry.in (first pass over file, find array dimensions only).
  The contents of geometry.in will be repeated verbatim below
  unless switched off by setting 'verbatim_writeout .false.' .
  in the first line of geometry.in .
  -----------------------------------------------------------------------
  
  #=======================================================
  # FHI-aims file: geometry.in
  # Created using the Atomic Simulation Environment (ASE)
  # Sun Jun 20 15:47:02 2021
  #=======================================================
  atom 18.3651429999999998 23.7056089999999990 44.3415139999999965 H
  atom 18.3312959999999983 22.6537080000000017 44.0707930000000019 C
  atom 17.9203529999999986 22.3161850000000008 42.7796880000000002 C
  atom 18.7692240000000012 21.7333220000000011 44.9904599999999988 C
  atom 17.5333110000000012 23.2956089999999989 41.7528750000000031 C
  atom 18.0228959999999994 20.9588059999999992 42.4118210000000033 C
  atom 18.7615139999999982 20.3875059999999984 44.6511649999999989 C
  atom 19.1242699999999992 22.0569400000000009 45.9685210000000026 H
  atom 17.0969249999999988 24.6484139999999989 42.1171709999999990 C
  atom 17.6335410000000010 22.9377239999999993 40.4242690000000024 C
  atom 17.7761759999999995 20.5659279999999995 41.0600000000000023 C
  atom 18.4060829999999989 19.9800359999999984 43.3743460000000027 C
  atom 19.0770069999999983 19.6389940000000003 45.3792199999999966 H
  atom 17.0930700000000009 25.6434239999999996 41.1117869999999996 C
  atom 16.5441180000000010 24.9590640000000015 43.3636320000000026 C
  atom 17.5841969999999996 21.5339750000000016 40.0510450000000020 C
  atom 17.8047029999999999 23.9975419999999993 39.4242429999999970 C
  atom 17.7707790000000010 19.1823380000000014 40.7117769999999979 C
  atom 18.3929760000000009 18.6027729999999991 42.9868359999999967 C
  atom 16.6805850000000007 26.9550710000000002 41.4439390000000003 C
  atom 17.5086389999999987 25.3394639999999995 39.7903239999999983 C
  atom 16.4302409999999988 24.1776340000000012 44.1072220000000002 H
  atom 16.0846020000000003 26.2387709999999998 43.6636390000000034 C
  atom 17.2495830000000012 21.1025980000000004 38.7617260000000030 C
  atom 18.3567390000000010 23.7792999999999992 38.1563530000000029 C
  atom 17.4801119999999983 18.7878369999999997 39.4224570000000014 C
  atom 18.0830340000000014 18.2278650000000013 41.7457319999999967 C
  atom 18.6479460000000010 17.8589550000000017 43.7422129999999996 H
  atom 16.1856030000000004 27.2304929999999992 42.7225430000000017 C
  atom 16.7206769999999985 27.9653349999999996 40.4278410000000008 C
  atom 17.6134950000000003 26.3743879999999997 38.8099410000000020 C
  atom 15.6464429999999997 26.4391880000000015 44.6413439999999966 H
  atom 17.1840480000000007 19.7489199999999983 38.4831470000000024 C
  atom 16.9761859999999984 21.8139490000000009 37.9904560000000018 H
  atom 18.7326020000000000 22.7954630000000016 37.8945599999999985 H
  atom 18.4800989999999992 24.8053209999999993 37.2420430000000025 C
  atom 17.4881300000000017 17.7311019999999999 39.1576290000000000 H
  atom 18.0922860000000014 17.1723900000000000 41.4703680000000006 H
  atom 15.8718059999999994 28.2496280000000013 42.9484420000000000 H
  atom 16.3622389999999989 28.9642400000000002 40.6778469999999999 H
  atom 17.1763380000000012 27.6864960000000018 39.1938800000000001 C
  atom 18.0807210000000005 26.0715110000000010 37.5438370000000035 C
  atom 16.9048690000000015 19.4443020000000004 37.4757990000000021 H
  atom 18.9083119999999987 24.5867919999999991 36.2646960000000007 H
  atom 17.2209789999999998 28.4733100000000015 38.4388599999999983 H
  atom 18.1251309999999997 26.8616090000000014 36.7929239999999993 H
  
  -----------------------------------------------------------------------
  Completed first pass over input file geometry.in .
  -----------------------------------------------------------------------
  

  Basic array size parameters:
  | Number of species                 :        2
  | Number of atoms                   :       46
  | Max. basis fn. angular momentum   :        4
  | Max. atomic/ionic basis occupied n:        2
  | Max. number of basis fn. types    :        2
  | Max. radial fns per species/type  :        8
  | Max. logarithmic grid size        :     1277
  | Max. radial integration grid size :       69
  | Max. angular integration grid size:      434
  | Max. angular grid division number :        8
  | Radial grid for Hartree potential :     1277
  | Number of spin channels           :        1

------------------------------------------------------------
          Reading file control.in.
------------------------------------------------------------
  XC: Using PBE gradient-corrected functionals.
  Scalar relativistic treatment of kinetic energy: ZORA.
  Threshold value for ZORA:   0.100000E-11
  Occupation type: Gaussian broadening, width =   0.100000E-03 eV.
  Since 'load_balancing .true.' is present in control.in, automatically turning on 'use_local_index .true.'.
  Using load balancing for integrations.
  Kohn-Sham electronic structure solved by the ELSI library.
  Using pulay charge density mixing.
  Pulay mixing - number of memorized iterations:    5
  Charge density mixing - mixing parameter:     0.4000
  Convergence accuracy of total energy:  0.1000E-05
  Convergence accuracy of sum of eigenvalues:  0.1000E-03
  Convergence accuracy of self-consistent charge density:  0.1000E-05
  Maximum number of s.-c. iterations  :   100
  * Ignoring prodbas_threshold
  Threshold for basis singularities:  0.1000E-04
  override_illconditioning: Explicitly overriding any built-in checks for an ill-conditioned overlap matrix.
  *** WARNING: If you use this flag, you should really know what you are doing.
  *** DO NOT keep this flag set by default in all your control.in files.
  Using 1D integrations for auxiliary 2-center integrals.
  Spin treatment: No spin polarisation.
  Charge =   0.000000E+00: Neutral system requested explicitly.
 
  Reading configuration options for species H                   .
  | Found nuclear charge :   1.0000
  | Found atomic mass :    1.00794000000000      amu
  | Found l_max for Hartree potential  :   6
  | Found cutoff potl. onset [A], width [A], scale factor :    4.00000    2.00000    1.00000
  | Threshold for basis-dependent cutoff potential is   0.100000E-03
  | Found data for basic radial integration grid :    24 points, outermost radius =    7.000 A
  | Found multiplier for basic radial grid :   2
  | Found angular grid specification: user-specified.
  | Specified grid contains     6 separate shells.
  | Check grid settings after all constraints further below.
  | Found free-atom valence shell :  1 s   1.000
  | No ionic wave fns used. Skipping ion_occ.
  | Found hydrogenic basis function :  2 s   2.100
  | Found hydrogenic basis function :  2 p   3.500
  | Found hydrogenic basis function :  1 s   0.850
  | Found hydrogenic basis function :  2 p   3.700
  | Found hydrogenic basis function :  2 s   1.200
  | Found hydrogenic basis function :  3 d   7.000
  Species H                   : Missing cutoff potential type.
  Defaulting to exp(1/x)/(1-x)^2 type cutoff potential.
  Species H : No 'logarithmic' tag. Using default grid for free atom:
  | Default logarithmic grid data [bohr] : 0.1000E-03 0.1000E+03 0.1012E+01
  Species H : On-site basis accuracy parameter (for Gram-Schmidt orthonormalisation) not specified.
  Using default value basis_acc =  0.1000000E-03.
  Species H                   : Using default innermost maximum threshold i_radial=  2 for radial functions.
  Species H                   : Default cutoff onset for free atom density etc. : 0.40000000E+01 AA.
  Species H                   : Basic radial grid will be enhanced according to radial_multiplier =   2, to contain    49 grid points.
 
  Reading configuration options for species C                   .
  | Found nuclear charge :   6.0000
  | Found atomic mass :    12.0107000000000      amu
  | Found l_max for Hartree potential  :   6
  | Found cutoff potl. onset [A], width [A], scale factor :    4.00000    2.00000    1.00000
  | Threshold for basis-dependent cutoff potential is   0.100000E-03
  | Found data for basic radial integration grid :    34 points, outermost radius =    7.000 A
  | Found multiplier for basic radial grid :   2
  | Found angular grid specification: user-specified.
  | Specified grid contains     6 separate shells.
  | Check grid settings after all constraints further below.
  | Found free-atom valence shell :  2 s   2.000
  | Found free-atom valence shell :  2 p   2.000
  | No ionic wave fns used. Skipping ion_occ.
  | No ionic wave fns used. Skipping ion_occ.
  | Found hydrogenic basis function :  2 p   1.700
  | Found hydrogenic basis function :  3 d   6.000
  | Found hydrogenic basis function :  2 s   4.900
  | Found hydrogenic basis function :  4 f   9.800
  | Found hydrogenic basis function :  3 p   5.200
  | Found hydrogenic basis function :  3 s   4.300
  | Found hydrogenic basis function :  5 g  14.400
  | Found hydrogenic basis function :  3 d   6.200
  Species C                   : Missing cutoff potential type.
  Defaulting to exp(1/x)/(1-x)^2 type cutoff potential.
  Species C : No 'logarithmic' tag. Using default grid for free atom:
  | Default logarithmic grid data [bohr] : 0.1000E-03 0.1000E+03 0.1012E+01
  Species C : On-site basis accuracy parameter (for Gram-Schmidt orthonormalisation) not specified.
  Using default value basis_acc =  0.1000000E-03.
  Species C                   : Using default innermost maximum threshold i_radial=  2 for radial functions.
  Species C                   : Default cutoff onset for free atom density etc. : 0.40000000E+01 AA.
  Species C                   : Basic radial grid will be enhanced according to radial_multiplier =   2, to contain    69 grid points.
 
  Finished reading input file 'control.in'. Consistency checks are next.
 
  MPI_IN_PLACE appears to work with this MPI implementation.
  | Keeping use_mpi_in_place .true. (see manual).
  Target number of points in a grid batch is not set. Defaulting to  100
  Method for grid partitioning is not set. Defaulting to parallel hash+maxmin partitioning.
  Batch size limit is not set. Defaulting to    200
  By default, will store active basis functions for each batch.
  If in need of memory, prune_basis_once .false. can be used to disable this option.
  communication_type for Hartree potential was not specified.
  Defaulting to calc_hartree .
  Pulay mixer: Number of initial linear mixing iterations not set.
  Defaulting to    0 iterations.
  Work space size for distributed Hartree potential not set.
  Defaulting to   0.200000E+03 MB.
  Algorithm-dependent basis array size parameters:
  | n_max_pulay                         :        5
  Presetting      1001 iterations before the initial mixing cycle
  is restarted anyway using the sc_init_iter criterion / keyword.
  Presetting a factor      1.000 between actual scf density residual
  and density convergence criterion sc_accuracy_rho below which sc_init_iter
  takes no effect.
  Calculation of forces was not defined in control.in. No forces will be calculated.
  Geometry relaxation not requested: no relaxation will be performed.
  No accuracy limit for integral partition fn. given. Defaulting to  0.1000E-14.
  No threshold value for u(r) in integrations given. Defaulting to  0.1000E-05.
  No accuracy for occupation numbers given. Defaulting to  0.1000E-12.
  No threshold value for occupation numbers given. Defaulting to  0.0000E+00.
  No accuracy for fermi level given. Defaulting to  0.1000E-19.
  Maximum # of iterations to find E_F not set. Defaulting to  200.
  Will not use alltoall communication since running on < 1024 CPUs.
  partition_type (choice of integration weights) for integrals was not specified.
  | Using a version of the partition function of Stratmann and coworkers ('stratmann_sparse').
  | At each grid point, the set of atoms used to build the partition table is smoothly restricted to
  | only those atoms whose free-atom density would be non-zero at that grid point.
  Partitioning for Hartree potential was not defined. Using partition_type for integrals.
  | Adjusted default value of keyword multip_moments_threshold to:       0.10000000E-11
  | This value may affect high angular momentum components of the Hartree potential in periodic systems.
  No q(lm)/r^(l+1) cutoff set for long-range Hartree potential.
  | Using default value of  0.100000E-09 .
  | Verify using the multipole_threshold keyword.
  Defaulting to new monopole extrapolation.
  Density update method: automatic selection selected.
 * Warning: use_local_index and/or load_balancing needs packed_matrix_format = index
 * Changing the default setting to packed_matrix_format = index
------------------------------------------------------------


------------------------------------------------------------
          Reading geometry description geometry.in.
------------------------------------------------------------
  Input structure read successfully.
  The structure contains       46 atoms,  and a total of        196.000 electrons.

  Input geometry:
  | No unit cell requested.
  | Atomic structure:
  |       Atom                x [A]            y [A]            z [A]
  |    1: Species H            18.36514300       23.70560900       44.34151400
  |    2: Species C            18.33129600       22.65370800       44.07079300
  |    3: Species C            17.92035300       22.31618500       42.77968800
  |    4: Species C            18.76922400       21.73332200       44.99046000
  |    5: Species C            17.53331100       23.29560900       41.75287500
  |    6: Species C            18.02289600       20.95880600       42.41182100
  |    7: Species C            18.76151400       20.38750600       44.65116500
  |    8: Species H            19.12427000       22.05694000       45.96852100
  |    9: Species C            17.09692500       24.64841400       42.11717100
  |   10: Species C            17.63354100       22.93772400       40.42426900
  |   11: Species C            17.77617600       20.56592800       41.06000000
  |   12: Species C            18.40608300       19.98003600       43.37434600
  |   13: Species H            19.07700700       19.63899400       45.37922000
  |   14: Species C            17.09307000       25.64342400       41.11178700
  |   15: Species C            16.54411800       24.95906400       43.36363200
  |   16: Species C            17.58419700       21.53397500       40.05104500
  |   17: Species C            17.80470300       23.99754200       39.42424300
  |   18: Species C            17.77077900       19.18233800       40.71177700
  |   19: Species C            18.39297600       18.60277300       42.98683600
  |   20: Species C            16.68058500       26.95507100       41.44393900
  |   21: Species C            17.50863900       25.33946400       39.79032400
  |   22: Species H            16.43024100       24.17763400       44.10722200
  |   23: Species C            16.08460200       26.23877100       43.66363900
  |   24: Species C            17.24958300       21.10259800       38.76172600
  |   25: Species C            18.35673900       23.77930000       38.15635300
  |   26: Species C            17.48011200       18.78783700       39.42245700
  |   27: Species C            18.08303400       18.22786500       41.74573200
  |   28: Species H            18.64794600       17.85895500       43.74221300
  |   29: Species C            16.18560300       27.23049300       42.72254300
  |   30: Species C            16.72067700       27.96533500       40.42784100
  |   31: Species C            17.61349500       26.37438800       38.80994100
  |   32: Species H            15.64644300       26.43918800       44.64134400
  |   33: Species C            17.18404800       19.74892000       38.48314700
  |   34: Species H            16.97618600       21.81394900       37.99045600
  |   35: Species H            18.73260200       22.79546300       37.89456000
  |   36: Species C            18.48009900       24.80532100       37.24204300
  |   37: Species H            17.48813000       17.73110200       39.15762900
  |   38: Species H            18.09228600       17.17239000       41.47036800
  |   39: Species H            15.87180600       28.24962800       42.94844200
  |   40: Species H            16.36223900       28.96424000       40.67784700
  |   41: Species C            17.17633800       27.68649600       39.19388000
  |   42: Species C            18.08072100       26.07151100       37.54383700
  |   43: Species H            16.90486900       19.44430200       37.47579900
  |   44: Species H            18.90831200       24.58679200       36.26469600
  |   45: Species H            17.22097900       28.47331000       38.43886000
  |   46: Species H            18.12513100       26.86160900       36.79292400
  |

  | The smallest distance between any two atoms is         1.08426177 AA.
  |
  | The first atom of this pair is atom number                     24 .
  | The second atom of this pair is atom number                    34 .

  Number of empty states per atom not set in control.in - providing a guess from actual geometry.
  | Total number of empty states used during s.c.f. cycle:      114
  If you use a very high smearing, use empty_states (per atom!) in control.in to increase this value.

  Structure-dependent array size parameters: 
  | Maximum number of distinct radial functions  :       18
  | Maximum number of basis functions            :     1410
  | Number of Kohn-Sham states (occupied + empty):      212
------------------------------------------------------------

------------------------------------------------------------
          Preparing all fixed parts of the calculation.
------------------------------------------------------------
  Determining machine precision:
    2.225073858507201E-308
  Setting up grids for atomic and cluster calculations.

  Creating wave function, potential, and density for free atoms.

  Species: H

  List of occupied orbitals and eigenvalues:
    n    l              occ      energy [Ha]    energy [eV]
    1    0           1.0000        -0.238386        -6.4868


  Species: C

  List of occupied orbitals and eigenvalues:
    n    l              occ      energy [Ha]    energy [eV]
    1    0           2.0000       -10.049212      -273.4530
    2    0           2.0000        -0.504761       -13.7352
    2    1           2.0000        -0.193631        -5.2690

  Creating fixed part of basis set: Ionic, confined, hydrogenic.
 
  H                    hydrogenic:
 
  List of hydrogenic basis orbitals: 
    n    l      effective z      eigenvalue [eV]  inner max. [A]     outer max. [A]     outer radius [A]   
    2    0         2.100000       -14.9965           0.193243           1.317208           5.373006
    2    1         3.500000       -41.6672           0.602369           0.602369           4.056063
    1    0         0.850000        -9.8292           0.624871           0.624871           5.373006
    2    1         3.700000       -46.5653           0.573622           0.573622           3.910002
    2    0         1.200000        -4.5995           0.334980           2.228188           5.505995
    3    2         7.000000       -74.0753           0.680699           0.680699           3.769201
 
 
  C                    hydrogenic:
 
  List of hydrogenic basis orbitals: 
    n    l      effective z      eigenvalue [eV]  inner max. [A]     outer max. [A]     outer radius [A]   
    2    1         1.700000        -9.8152           1.245706           1.245706           5.401630
    3    2         6.000000       -54.4226           0.792453           0.792453           4.178599
    2    0         4.900000       -81.6681           0.082559           0.562749           3.353238
    4    3         9.800000       -81.6681           0.863254           0.863254           4.028125
    3    1         5.200000       -40.8774           0.305389           1.215618           4.898362
    3    0         4.300000       -27.9508           0.091041           1.610311           5.401630
    5    4        14.400000      -112.8510           0.917666           0.917666           3.883070
    3    2         6.200000       -58.1113           0.763917           0.763917           4.077671
 

  Adding cutoff potential to free-atom effective potential.
  Creating atomic-like basis functions for current effective potential.

  Species H                   :

  List of atomic basis orbitals and eigenvalues:
    n    l      energy [Ha]    energy [eV]    outer radius [A]
    1    0        -0.238386        -6.4868       5.373006


  Species C                   :

  List of atomic basis orbitals and eigenvalues:
    n    l      energy [Ha]    energy [eV]    outer radius [A]
    1    0       -10.049212      -273.4530       1.934409
    2    0        -0.504761       -13.7352       5.271162
    2    1        -0.193631        -5.2690       5.401630

  Assembling full basis from fixed parts.
  | Species H :   atomic orbital   1 s accepted.
  | Species H :    hydro orbital   2 s accepted.
  | Species H :    hydro orbital   1 s accepted.
  | Species H :    hydro orbital   2 s accepted.
  | Species H :    hydro orbital   2 p accepted.
  | Species H :    hydro orbital   2 p accepted.
  | Species H :    hydro orbital   3 d accepted.
  | Species C :   atomic orbital   1 s accepted.
  | Species C :    hydro orbital   2 s accepted.
  | Species C :   atomic orbital   2 s accepted.
  | Species C :    hydro orbital   3 s accepted.
  | Species C :    hydro orbital   3 p accepted.
  | Species C :   atomic orbital   2 p accepted.
  | Species C :    hydro orbital   2 p accepted.
  | Species C :    hydro orbital   3 d accepted.
  | Species C :    hydro orbital   3 d accepted.
  | Species C :    hydro orbital   4 f accepted.
  | Species C :    hydro orbital   5 g accepted.
 
  Basis size parameters after reduction:
  | Total number of radial functions:       18
  | Total number of basis functions :     1410
 
  Per-task memory consumption for arrays in subroutine allocate_ext:
  |           4.446336MB.
  Testing on-site integration grid accuracy.
  |  Species  Function  <phi|h_atom|phi> (log., in eV)  <phi|h_atom|phi> (rad., in eV)
           1        1                 -6.4870767962                 -6.4871688290
           1        2                 13.5032046589                 13.5028982997
           1        3                 32.8195184817                 32.8119941656
           1        4                 33.8513856511                 33.7670005767 ***
           1        5                 28.8544614965                 28.8544615203
           1        6                 59.6326952547                 59.6327656460
           1        7                 60.2719308513                 60.2719305949
           2        8               -273.4529726040               -273.4529710464
           2        9                -10.7721037319                -10.7721022101
           2       10                 17.6044132601                 17.6044162063
           2       11                 53.7706460658                 53.7706913770
           2       12                 15.0973290362                 15.0973256030
           2       13                  3.8545134692                  3.8545724687
           2       14                 12.1156992592                 12.1182024431
           2       15                 29.4352039302                 29.4352041816
           2       16                 54.8741144708                 54.8740268729
           2       17                 59.3556032049                 59.3556031382
           2       18                 93.4551837154                 93.4551838009
 * Note: Onsite integrals marked "***" above are less accurate than
 * onsite_accuracy_threshold =    0.03000 eV. Usually, this is harmless.
 * When in doubt, tighten the "radial" and/or "radial_multiplier" flags to check.

  Preparing densities etc. for the partition functions (integrals / Hartree potential).

  Preparations completed.
  max(cpu_time)          :      0.197 s.
  Wall clock time (cpu1) :      0.208 s.
------------------------------------------------------------

------------------------------------------------------------
          Begin self-consistency loop: Initialization.

          Date     :  20210620, Time     :  174014.331
------------------------------------------------------------

  Initializing index lists of integration centers etc. from given atomic structure:
  | Number of centers in hartree potential         :        46
  | Number of centers in hartree multipole         :        46
  | Number of centers in electron density summation:        46
  | Number of centers in basis integrals           :        46
  | Number of centers in integrals                 :        46
  | Number of centers in hamiltonian               :        46
  * Using 56 tasks for Scalapack Eigenvalue solver.
  Detailed listing of tasks and assigned k-points:
  (for non-periodic systems, the "k-point" denotes an internal label only)
   Task     0 k-point     1 on d001
   Task     1 k-point     1 on d001
   Task     2 k-point     1 on d001
   Task     3 k-point     1 on d001
   Task     4 k-point     1 on d001
   Task     5 k-point     1 on d001
   Task     6 k-point     1 on d001
   Task     7 k-point     1 on d001
   Task     8 k-point     1 on d001
   Task     9 k-point     1 on d001
   Task    10 k-point     1 on d001
   Task    11 k-point     1 on d001
   Task    12 k-point     1 on d001
   Task    13 k-point     1 on d001
   Task    14 k-point     1 on d001
   Task    15 k-point     1 on d001
   Task    16 k-point     1 on d001
   Task    17 k-point     1 on d001
   Task    18 k-point     1 on d001
   Task    19 k-point     1 on d001
   Task    20 k-point     1 on d001
   Task    21 k-point     1 on d001
   Task    22 k-point     1 on d001
   Task    23 k-point     1 on d001
   Task    24 k-point     1 on d001
   Task    25 k-point     1 on d001
   Task    26 k-point     1 on d001
   Task    27 k-point     1 on d001
   Task    28 k-point     1 on d001
   Task    29 k-point     1 on d001
   Task    30 k-point     1 on d001
   Task    31 k-point     1 on d001
   Task    32 k-point     1 on d001
   Task    33 k-point     1 on d001
   Task    34 k-point     1 on d001
   Task    35 k-point     1 on d001
   Task    36 k-point     1 on d001
   Task    37 k-point     1 on d001
   Task    38 k-point     1 on d001
   Task    39 k-point     1 on d001
   Task    40 k-point     1 on d001
   Task    41 k-point     1 on d001
   Task    42 k-point     1 on d001
   Task    43 k-point     1 on d001
   Task    44 k-point     1 on d001
   Task    45 k-point     1 on d001
   Task    46 k-point     1 on d001
   Task    47 k-point     1 on d001
   Task    48 k-point     1 on d001
   Task    49 k-point     1 on d001
   Task    50 k-point     1 on d001
   Task    51 k-point     1 on d001
   Task    52 k-point     1 on d001
   Task    53 k-point     1 on d001
   Task    54 k-point     1 on d001
   Task    55 k-point     1 on d001
  Tasks:    56 split into      8 X      7 BLACS grid
  Calculating block size based on n_basis =         1410 max_nprow =            8 max_npcol =            7
  ScaLAPACK block size set to:           16
  Allocating        0.296 MB for ovlp
  Allocating        0.296 MB for ham
  Allocating        0.296 MB for eigenvec
  Required Scalapack workspace - INTEGER:            1 REAL:             1
  Partitioning the integration grid into batches with parallel hashing+maxmin method.
  | Number of batches:     6871
  | Maximal batch size:     199
  | Minimal batch size:       3
  | Average batch size:     112.580
  | Standard deviation of batch sizes:      34.255

  Integration load balanced across     56 MPI tasks.
  Work distribution over tasks is as follows:
  Task      0 has      13927 integration points.
  Task      1 has      13855 integration points.
  Task      2 has      13849 integration points.
  Task      3 has      13874 integration points.
  Task      4 has      13701 integration points.
  Task      5 has      13803 integration points.
  Task      6 has      13761 integration points.
  Task      7 has      13877 integration points.
  Task      8 has      13793 integration points.
  Task      9 has      13785 integration points.
  Task     10 has      13811 integration points.
  Task     11 has      13786 integration points.
  Task     12 has      13900 integration points.
  Task     13 has      13688 integration points.
  Task     14 has      13924 integration points.
  Task     15 has      13933 integration points.
  Task     16 has      13707 integration points.
  Task     17 has      13916 integration points.
  Task     18 has      13702 integration points.
  Task     19 has      13921 integration points.
  Task     20 has      13670 integration points.
  Task     21 has      13836 integration points.
  Task     22 has      13856 integration points.
  Task     23 has      13764 integration points.
  Task     24 has      13910 integration points.
  Task     25 has      13771 integration points.
  Task     26 has      13764 integration points.
  Task     27 has      13703 integration points.
  Task     28 has      13856 integration points.
  Task     29 has      13895 integration points.
  Task     30 has      13780 integration points.
  Task     31 has      13975 integration points.
  Task     32 has      13770 integration points.
  Task     33 has      13823 integration points.
  Task     34 has      13743 integration points.
  Task     35 has      13939 integration points.
  Task     36 has      13787 integration points.
  Task     37 has      13762 integration points.
  Task     38 has      13920 integration points.
  Task     39 has      13743 integration points.
  Task     40 has      13775 integration points.
  Task     41 has      13711 integration points.
  Task     42 has      13867 integration points.
  Task     43 has      13945 integration points.
  Task     44 has      13755 integration points.
  Task     45 has      13878 integration points.
  Task     46 has      13809 integration points.
  Task     47 has      13791 integration points.
  Task     48 has      13695 integration points.
  Task     49 has      13818 integration points.
  Task     50 has      13874 integration points.
  Task     51 has      13686 integration points.
  Task     52 has      13938 integration points.
  Task     53 has      13723 integration points.
  Task     54 has      13845 integration points.
  Task     55 has      13650 integration points.
  Initializing partition tables, free-atom densities, potentials, etc. across the integration grid (initialize_grid_storage).
  | initialize_grid_storage: Actual outermost partition radius vs. multipole_radius_free
  | (-- VB: in principle, multipole_radius_free should be larger, hence this output)
  | Species        1: Confinement radius =              6.000000000000000 AA, multipole_radius_free =              6.071692442739658 AA.
  | Species        1: outer_partition_radius set to              6.071692442739658 AA .
  | Species        2: Confinement radius =              6.000000000000000 AA, multipole_radius_free =              6.029870734432609 AA.
  | Species        2: outer_partition_radius set to              6.029870734432609 AA .
  | The sparse table of interatomic distances needs     25.0280 kbyte instead of    16.9280 kbyte of memory.
  | Using the partition_type stratmann_smoother will reduce your memory usage.
  | Net number of integration points:   773540
  | of which are non-zero points    :   615021
  Renormalizing the initial density to the exact electron count on the 3D integration grid.
  | Initial density: Formal number of electrons (from input files) :     196.0000000000
  | Integrated number of electrons on 3D grid     :     195.9998589676
  | Charge integration error                      :      -0.0001410324
  | Normalization factor for density and gradient :       1.0000007196
  Obtaining max. number of non-zero basis functions in each batch (get_n_compute_maxes).
  | Maximal number of non-zero basis functions:     1033
  Selecting the method for density update.
  Loop over occupied states selected for charge density update.
  Hamiltonian matrix size:
  | Size of matrix non-packed:                994755
  | Size of matrix packed:          920411
  Allocating        2.391 MB for KS_eigenvector
  use_local_index: Max. local matrix size =       776180
  Task:     0 matrix size:     142845
  Task:     1 matrix size:     183299
  Task:     2 matrix size:     316197
  Task:     3 matrix size:     320339
  Task:     4 matrix size:     455836
  Task:     5 matrix size:     767163
  Task:     6 matrix size:     776180
  Task:     7 matrix size:     181374
  Task:     8 matrix size:     349205
  Task:     9 matrix size:     336030
  Task:    10 matrix size:     315069
  Task:    11 matrix size:     531176
  Task:    12 matrix size:     767068
  Task:    13 matrix size:     730763
  Task:    14 matrix size:     321787
  Task:    15 matrix size:     309057
  Task:    16 matrix size:     208320
  Task:    17 matrix size:     720175
  Task:    18 matrix size:     698931
  Task:    19 matrix size:     495261
  Task:    20 matrix size:     316021
  Task:    21 matrix size:     294259
  Task:    22 matrix size:     218750
  Task:    23 matrix size:     128271
  Task:    24 matrix size:     638264
  Task:    25 matrix size:     611225
  Task:    26 matrix size:     269019
  Task:    27 matrix size:     162648
  Task:    28 matrix size:     354167
  Task:    29 matrix size:     653948
  Task:    30 matrix size:     653598
  Task:    31 matrix size:     184524
  Task:    32 matrix size:     244537
  Task:    33 matrix size:     304387
  Task:    34 matrix size:     316855
  Task:    35 matrix size:     206933
  Task:    36 matrix size:     657956
  Task:    37 matrix size:     648739
  Task:    38 matrix size:     207636
  Task:    39 matrix size:     133903
  Task:    40 matrix size:     455020
  Task:    41 matrix size:     432641
  Task:    42 matrix size:     701118
  Task:    43 matrix size:     469375
  Task:    44 matrix size:     276429
  Task:    45 matrix size:     328134
  Task:    46 matrix size:     186953
  Task:    47 matrix size:     222769
  Task:    48 matrix size:     128778
  Task:    49 matrix size:     716525
  Task:    50 matrix size:     574009
  Task:    51 matrix size:     302575
  Task:    52 matrix size:     563939
  Task:    53 matrix size:     338556
  Task:    54 matrix size:     443193
  Task:    55 matrix size:     281971
  Integrating Hamiltonian matrix: batch-based integration.
  Time summed over all CPUs for integration: real work      157.002 s, elapsed      294.491 s
  Time get_set_sparse_local_matrix_scalapack:     0.015104 s
  Start compute_balanced_batch_distribution
  Done load balancing, time needed:      0.008 s
  Integrating overlap matrix with loadbalancing
  Time summed over all CPUs for integration: real work       38.817 s, elapsed       48.650 s
  Time get_set_full_local_matrix_scalapack:     0.016687 s

  Updating Kohn-Sham eigenvalues and eigenvectors using ELSI and the ELPA eigensolver.
  Overlap matrix is not singular
  | Lowest and highest eigenvalues :  0.12E+02,  0.87E-04
  Finished singularity check of overlap matrix
  | Time :     0.100 s
  Finished Cholesky decomposition
  | Time :     0.019 s
  Finished transformation to standard eigenproblem
  | Time :     0.013 s
  Starting ELPA eigensolver
  Finished solving standard eigenproblem
  | Time :     0.086 s
  Finished back-transformation of eigenvectors
  | Time :     0.004 s

  Obtaining occupation numbers and chemical potential using ELSI.
  | Chemical potential (Fermi level):    -8.11602764 eV
  Writing Kohn-Sham eigenvalues.

  State    Occupation    Eigenvalue [Ha]    Eigenvalue [eV]
      1       2.00000         -10.177332         -276.93929
      2       2.00000         -10.176435         -276.91487
      3       2.00000         -10.174921         -276.87370
      4       2.00000         -10.174883         -276.87266
      5       2.00000         -10.174263         -276.85577
      6       2.00000         -10.174052         -276.85004
      7       2.00000         -10.173561         -276.83668
      8       2.00000         -10.173481         -276.83451
      9       2.00000         -10.173374         -276.83159
     10       2.00000         -10.172679         -276.81268
     11       2.00000         -10.172477         -276.80719
     12       2.00000         -10.172285         -276.80196
     13       2.00000         -10.171764         -276.78777
     14       2.00000         -10.171759         -276.78764
     15       2.00000         -10.171704         -276.78615
     16       2.00000         -10.170545         -276.75461
     17       2.00000         -10.168620         -276.70223
     18       2.00000         -10.168299         -276.69349
     19       2.00000         -10.168216         -276.69122
     20       2.00000         -10.168045         -276.68657
     21       2.00000         -10.167878         -276.68203
     22       2.00000         -10.165941         -276.62932
     23       2.00000         -10.165686         -276.62240
     24       2.00000         -10.165321         -276.61245
     25       2.00000         -10.165115         -276.60685
     26       2.00000         -10.164274         -276.58397
     27       2.00000         -10.163716         -276.56878
     28       2.00000         -10.162550         -276.53705
     29       2.00000         -10.161461         -276.50743
     30       2.00000         -10.159416         -276.45177
     31       2.00000          -1.027212          -27.95185
     32       2.00000          -1.017016          -27.67441
     33       2.00000          -0.992788          -27.01514
     34       2.00000          -0.987758          -26.87826
     35       2.00000          -0.972191          -26.45467
     36       2.00000          -0.948768          -25.81730
     37       2.00000          -0.942490          -25.64645
     38       2.00000          -0.921873          -25.08544
     39       2.00000          -0.911662          -24.80757
     40       2.00000          -0.891062          -24.24704
     41       2.00000          -0.883174          -24.03240
     42       2.00000          -0.873884          -23.77958
     43       2.00000          -0.864440          -23.52261
     44       2.00000          -0.860955          -23.42779
     45       2.00000          -0.854778          -23.25969
     46       2.00000          -0.783117          -21.30970
     47       2.00000          -0.779701          -21.21675
     48       2.00000          -0.777443          -21.15531
     49       2.00000          -0.769054          -20.92702
     50       2.00000          -0.768644          -20.91587
     51       2.00000          -0.766612          -20.86057
     52       2.00000          -0.737415          -20.06607
     53       2.00000          -0.719524          -19.57926
     54       2.00000          -0.691898          -18.82751
     55       2.00000          -0.680587          -18.51971
     56       2.00000          -0.680088          -18.50613
     57       2.00000          -0.679037          -18.47754
     58       2.00000          -0.666387          -18.13332
     59       2.00000          -0.651682          -17.73318
     60       2.00000          -0.648881          -17.65695
     61       2.00000          -0.628930          -17.11405
     62       2.00000          -0.618229          -16.82286
     63       2.00000          -0.617664          -16.80748
     64       2.00000          -0.614541          -16.72251
     65       2.00000          -0.610132          -16.60254
     66       2.00000          -0.607572          -16.53287
     67       2.00000          -0.590204          -16.06028
     68       2.00000          -0.585182          -15.92360
     69       2.00000          -0.579281          -15.76303
     70       2.00000          -0.577080          -15.70314
     71       2.00000          -0.567459          -15.44135
     72       2.00000          -0.566273          -15.40908
     73       2.00000          -0.564585          -15.36315
     74       2.00000          -0.543121          -14.77908
     75       2.00000          -0.541773          -14.74240
     76       2.00000          -0.534014          -14.53125
     77       2.00000          -0.532127          -14.47991
     78       2.00000          -0.528546          -14.38247
     79       2.00000          -0.523631          -14.24873
     80       2.00000          -0.520250          -14.15672
     81       2.00000          -0.516417          -14.05241
     82       2.00000          -0.501925          -13.65806
     83       2.00000          -0.501321          -13.64163
     84       2.00000          -0.498040          -13.55237
     85       2.00000          -0.494332          -13.45145
     86       2.00000          -0.489267          -13.31363
     87       2.00000          -0.485920          -13.22256
     88       2.00000          -0.473039          -12.87204
     89       2.00000          -0.458123          -12.46617
     90       2.00000          -0.442441          -12.03943
     91       2.00000          -0.433330          -11.79151
     92       2.00000          -0.425147          -11.56884
     93       2.00000          -0.411826          -11.20637
     94       2.00000          -0.397851          -10.82609
     95       2.00000          -0.388143          -10.56190
     96       2.00000          -0.376692          -10.25030
     97       2.00000          -0.372702          -10.14174
     98       2.00000          -0.349021           -9.49736
     99       0.00000          -0.262231           -7.13568
    100       0.00000          -0.243695           -6.63129
    101       0.00000          -0.239178           -6.50836
    102       0.00000          -0.226295           -6.15780
    103       0.00000          -0.212774           -5.78987
    104       0.00000          -0.206279           -5.61313
    105       0.00000          -0.173871           -4.73127
    106       0.00000          -0.173324           -4.71638
    107       0.00000          -0.158040           -4.30048
    108       0.00000          -0.140627           -3.82666
    109       0.00000          -0.108200           -2.94428
    110       0.00000          -0.084738           -2.30583
    111       0.00000          -0.071026           -1.93270
    112       0.00000          -0.069771           -1.89856
    113       0.00000          -0.067497           -1.83669
    114       0.00000          -0.067115           -1.82628
    115       0.00000          -0.053557           -1.45737
    116       0.00000          -0.051273           -1.39521
    117       0.00000          -0.042640           -1.16029
    118       0.00000          -0.032460           -0.88327
    119       0.00000          -0.027687           -0.75341
    120       0.00000          -0.024624           -0.67006
    121       0.00000          -0.019727           -0.53681
    122       0.00000          -0.018234           -0.49617
    123       0.00000          -0.015110           -0.41117
    124       0.00000          -0.013431           -0.36549
    125       0.00000          -0.009119           -0.24813
    126       0.00000          -0.006344           -0.17263
    127       0.00000          -0.003031           -0.08248
    128       0.00000          -0.000167           -0.00455
    129       0.00000           0.001304            0.03549
    130       0.00000           0.014096            0.38356
    131       0.00000           0.016838            0.45818
    132       0.00000           0.020608            0.56076
    133       0.00000           0.021230            0.57770
    134       0.00000           0.022444            0.61074
    135       0.00000           0.031959            0.86966
    136       0.00000           0.033221            0.90399
    137       0.00000           0.037927            1.03204
    138       0.00000           0.039800            1.08302
    139       0.00000           0.042716            1.16235
    140       0.00000           0.044656            1.21514
    141       0.00000           0.046691            1.27052
    142       0.00000           0.048791            1.32767
    143       0.00000           0.049509            1.34722
    144       0.00000           0.052703            1.43412
    145       0.00000           0.058393            1.58895
    146       0.00000           0.059649            1.62313
    147       0.00000           0.063252            1.72117
    148       0.00000           0.067897            1.84758
    149       0.00000           0.069401            1.88850
    150       0.00000           0.075550            2.05581
    151       0.00000           0.076499            2.08164
    152       0.00000           0.083180            2.26344
    153       0.00000           0.083250            2.26534
    154       0.00000           0.085848            2.33605
    155       0.00000           0.088063            2.39632
    156       0.00000           0.090336            2.45816
    157       0.00000           0.096238            2.61878
    158       0.00000           0.097752            2.65997
    159       0.00000           0.099599            2.71023
    160       0.00000           0.102347            2.78500
    161       0.00000           0.109641            2.98348
    162       0.00000           0.110933            3.01864
    163       0.00000           0.114286            3.10989
    164       0.00000           0.116633            3.17376
    165       0.00000           0.119413            3.24939
    166       0.00000           0.121405            3.30359
    167       0.00000           0.126848            3.45171
    168       0.00000           0.129913            3.53511
    169       0.00000           0.133247            3.62584
    170       0.00000           0.137554            3.74304
    171       0.00000           0.141298            3.84491
    172       0.00000           0.144550            3.93341
    173       0.00000           0.145094            3.94822
    174       0.00000           0.147377            4.01032
    175       0.00000           0.149065            4.05627
    176       0.00000           0.149917            4.07946
    177       0.00000           0.154479            4.20360
    178       0.00000           0.155464            4.23039
    179       0.00000           0.161470            4.39381
    180       0.00000           0.165197            4.49525
    181       0.00000           0.165365            4.49981
    182       0.00000           0.167840            4.56717
    183       0.00000           0.168867            4.59510
    184       0.00000           0.169278            4.60629
    185       0.00000           0.175483            4.77515
    186       0.00000           0.176316            4.79780
    187       0.00000           0.182506            4.96624
    188       0.00000           0.193375            5.26200
    189       0.00000           0.195149            5.31027
    190       0.00000           0.195633            5.32344
    191       0.00000           0.198609            5.40441
    192       0.00000           0.199179            5.41995
    193       0.00000           0.204551            5.56612
    194       0.00000           0.205813            5.60045
    195       0.00000           0.209429            5.69884
    196       0.00000           0.217243            5.91148
    197       0.00000           0.217745            5.92515
    198       0.00000           0.219527            5.97363
    199       0.00000           0.227513            6.19095
    200       0.00000           0.235752            6.41514
    201       0.00000           0.237670            6.46732
    202       0.00000           0.240932            6.55610
    203       0.00000           0.241982            6.58467
    204       0.00000           0.242634            6.60239
    205       0.00000           0.243972            6.63881
    206       0.00000           0.244621            6.65647
    207       0.00000           0.249400            6.78652
    208       0.00000           0.253392            6.89514
    209       0.00000           0.255763            6.95966
    210       0.00000           0.266604            7.25467
    211       0.00000           0.268166            7.29718
    212       0.00000           0.273258            7.43573

  Highest occupied state (VBM) at     -9.49735606 eV
  | Occupation number:      2.00000000

  Lowest unoccupied state (CBM) at    -7.13567980 eV
  | Occupation number:      0.00000000

  Overall HOMO-LUMO gap:      2.36167626 eV.
  Calculating total energy contributions from superposition of free atom densities.

  Total energy components:
  | Sum of eigenvalues            :        -698.61260416 Ha      -19010.21618847 eV
  | XC energy correction          :        -164.90058463 Ha       -4487.17321254 eV
  | XC potential correction       :         211.81964782 Ha        5763.90588139 eV
  | Free-atom electrostatic energy:        -502.09663214 Ha      -13662.74451336 eV
  | Hartree energy correction     :           0.00000000 Ha           0.00000000 eV
  | Entropy correction            :           0.00000000 Ha           0.00000000 eV
  | ---------------------------
  | Total energy                  :       -1153.79017312 Ha      -31396.22803298 eV
  | Total energy, T -> 0          :       -1153.79017312 Ha      -31396.22803298 eV  <-- do not rely on this value for anything but (periodic) metals
  | Electronic free energy        :       -1153.79017312 Ha      -31396.22803298 eV

  Derived energy quantities:
  | Kinetic energy                :        1143.85148240 Ha       31125.78249851 eV
  | Electrostatic energy          :       -2132.74107089 Ha      -58034.83731895 eV
  | Energy correction for multipole
  | error in Hartree potential    :           0.00000000 Ha           0.00000000 eV
  | Sum of eigenvalues per atom                           :        -413.26556931 eV
  | Total energy (T->0) per atom                          :        -682.52669637 eV  <-- do not rely on this value for anything but (periodic) metals
  | Electronic free energy per atom                       :        -682.52669637 eV
  Initialize hartree_potential_storage
  Max. number of atoms included in rho_multipole:           46

  End scf initialization - timings             :  max(cpu_time)    wall_clock(cpu1)
  | Time for scf. initialization               :        7.691 s          16.428 s
  | Boundary condition initialization          :        0.001 s           0.007 s
  | Integration                                :        5.984 s          14.592 s
  | Solution of K.-S. eqns.                    :        0.218 s           0.269 s
  | Grid partitioning                          :        0.705 s           0.711 s
  | Preloading free-atom quantities on grid    :        0.013 s           0.022 s
  | Free-atom superposition energy             :        0.062 s           0.063 s
  | Total energy evaluation                    :        0.001 s           0.008 s

  Partial memory accounting:
  | Current value for overall tracked memory usage on task 0  :           3.852 MB
  | Peak value for overall tracked memory usage on task 0     :          28.357 MB after allocating zora_vector2
  | Largest tracked array allocation on task 0 so far         :           8.537 MB  when allocating hamiltonian_shell
  Note:  These values currently only include a subset of arrays which are explicitly tracked.
  The "true" memory usage will be greater.
------------------------------------------------------------

------------------------------------------------------------
          Begin self-consistency iteration #    1

  Date     :  20210620, Time     :  174030.767
------------------------------------------------------------
  Evaluating new KS density.
  Integration grid: deviation in total charge (<rho> - N_e) =   2.842171E-14
  Pulay mixing of updated and previous charge densities.

  Evaluating partitioned Hartree potential by multipole expansion.
  | Analytical far-field extrapolation by fixed multipoles:
  | Hartree multipole sum: apparent total charge =  -0.149841E-03
  Summing up the Hartree potential with load balancing.
  Time summed over all CPUs for potential: real work       23.144 s, elapsed       36.698 s
  | RMS charge density error from multipole expansion :   0.132420E-01

  Start compute_balanced_batch_distribution
  Done load balancing, time needed:      0.006 s
  Integrating Hamiltonian matrix: batch-based integration with load balancing
  Time summed over all CPUs for integration: real work      154.334 s, elapsed      183.612 s
  Time get_set_full_local_matrix_scalapack:     0.016723 s
  Start compute_balanced_batch_distribution
  Done load balancing, time needed:      0.006 s

  Updating Kohn-Sham eigenvalues and eigenvectors using ELSI and the ELPA eigensolver.
  Finished transformation to standard eigenproblem
  | Time :     0.015 s
  Starting ELPA eigensolver
  Finished solving standard eigenproblem
  | Time :     0.083 s
  Finished back-transformation of eigenvectors
  | Time :     0.004 s

  Obtaining occupation numbers and chemical potential using ELSI.
  | Chemical potential (Fermi level):    -5.75728063 eV
  Writing Kohn-Sham eigenvalues.

  State    Occupation    Eigenvalue [Ha]    Eigenvalue [eV]
      1       2.00000         -10.002873         -272.19202
      2       2.00000          -9.998892         -272.08369
      3       2.00000          -9.987858         -271.78345
      4       2.00000          -9.987090         -271.76254
      5       2.00000          -9.986121         -271.73618
      6       2.00000          -9.984823         -271.70087
      7       2.00000          -9.977011         -271.48829
      8       2.00000          -9.976780         -271.48199
      9       2.00000          -9.976111         -271.46380
     10       2.00000          -9.974562         -271.42165
     11       2.00000          -9.969857         -271.29361
     12       2.00000          -9.969285         -271.27805
     13       2.00000          -9.969274         -271.27776
     14       2.00000          -9.969235         -271.27669
     15       2.00000          -9.953071         -270.83684
     16       2.00000          -9.951822         -270.80286
     17       2.00000          -9.951665         -270.79858
     18       2.00000          -9.950924         -270.77841
     19       2.00000          -9.949949         -270.75190
     20       2.00000          -9.949356         -270.73575
     21       2.00000          -9.949024         -270.72673
     22       2.00000          -9.948552         -270.71388
     23       2.00000          -9.948371         -270.70896
     24       2.00000          -9.948076         -270.70091
     25       2.00000          -9.947662         -270.68967
     26       2.00000          -9.947383         -270.68207
     27       2.00000          -9.946159         -270.64876
     28       2.00000          -9.944512         -270.60393
     29       2.00000          -9.942950         -270.56144
     30       2.00000          -9.942051         -270.53696
     31       2.00000          -0.887818          -24.15876
     32       2.00000          -0.869136          -23.65039
     33       2.00000          -0.842601          -22.92833
     34       2.00000          -0.833868          -22.69071
     35       2.00000          -0.832463          -22.65248
     36       2.00000          -0.796973          -21.68674
     37       2.00000          -0.789708          -21.48906
     38       2.00000          -0.775656          -21.10666
     39       2.00000          -0.771735          -20.99998
     40       2.00000          -0.743979          -20.24469
     41       2.00000          -0.740457          -20.14887
     42       2.00000          -0.726575          -19.77110
     43       2.00000          -0.717091          -19.51303
     44       2.00000          -0.710488          -19.33337
     45       2.00000          -0.709344          -19.30222
     46       2.00000          -0.640432          -17.42704
     47       2.00000          -0.638937          -17.38637
     48       2.00000          -0.637910          -17.35842
     49       2.00000          -0.631714          -17.18981
     50       2.00000          -0.624077          -16.98200
     51       2.00000          -0.622976          -16.95203
     52       2.00000          -0.596270          -16.22534
     53       2.00000          -0.580762          -15.80335
     54       2.00000          -0.556434          -15.14135
     55       2.00000          -0.544057          -14.80454
     56       2.00000          -0.543435          -14.78762
     57       2.00000          -0.539075          -14.66897
     58       2.00000          -0.525126          -14.28942
     59       2.00000          -0.515161          -14.01823
     60       2.00000          -0.507093          -13.79871
     61       2.00000          -0.498860          -13.57468
     62       2.00000          -0.486865          -13.24826
     63       2.00000          -0.484813          -13.19242
     64       2.00000          -0.478186          -13.01211
     65       2.00000          -0.459058          -12.49162
     66       2.00000          -0.455964          -12.40742
     67       2.00000          -0.453552          -12.34178
     68       2.00000          -0.449629          -12.23502
     69       2.00000          -0.442189          -12.03256
     70       2.00000          -0.439629          -11.96291
     71       2.00000          -0.437629          -11.90849
     72       2.00000          -0.426385          -11.60252
     73       2.00000          -0.424973          -11.56409
     74       2.00000          -0.422878          -11.50708
     75       2.00000          -0.417098          -11.34981
     76       2.00000          -0.411124          -11.18726
     77       2.00000          -0.402198          -10.94435
     78       2.00000          -0.393578          -10.70980
     79       2.00000          -0.393055          -10.69558
     80       2.00000          -0.386895          -10.52794
     81       2.00000          -0.385756          -10.49697
     82       2.00000          -0.374314          -10.18559
     83       2.00000          -0.370239          -10.07471
     84       2.00000          -0.368309          -10.02219
     85       2.00000          -0.360629           -9.81321
     86       2.00000          -0.359948           -9.79468
     87       2.00000          -0.349517           -9.51085
     88       2.00000          -0.337996           -9.19734
     89       2.00000          -0.333945           -9.08710
     90       2.00000          -0.314274           -8.55182
     91       2.00000          -0.309347           -8.41775
     92       2.00000          -0.305684           -8.31810
     93       2.00000          -0.287668           -7.82786
     94       2.00000          -0.277715           -7.55702
     95       2.00000          -0.262742           -7.14958
     96       2.00000          -0.252238           -6.86375
     97       2.00000          -0.246032           -6.69488
     98       2.00000          -0.225067           -6.12439
     99       0.00000          -0.141181           -3.84174
    100       0.00000          -0.120066           -3.26717
    101       0.00000          -0.116933           -3.18192
    102       0.00000          -0.102403           -2.78652
    103       0.00000          -0.094718           -2.57740
    104       0.00000          -0.084766           -2.30661
    105       0.00000          -0.053049           -1.44353
    106       0.00000          -0.051516           -1.40183
    107       0.00000          -0.033386           -0.90848
    108       0.00000          -0.027116           -0.73786
    109       0.00000          -0.023192           -0.63109
    110       0.00000          -0.022031           -0.59951
    111       0.00000          -0.018783           -0.51111
    112       0.00000          -0.011153           -0.30348
    113       0.00000          -0.010624           -0.28910
    114       0.00000           0.001741            0.04738
    115       0.00000           0.006536            0.17784
    116       0.00000           0.009958            0.27096
    117       0.00000           0.016906            0.46003
    118       0.00000           0.017595            0.47880
    119       0.00000           0.028483            0.77506
    120       0.00000           0.031151            0.84766
    121       0.00000           0.035181            0.95733
    122       0.00000           0.037433            1.01861
    123       0.00000           0.038847            1.05709
    124       0.00000           0.046020            1.25226
    125       0.00000           0.059094            1.60804
    126       0.00000           0.066026            1.79665
    127       0.00000           0.070733            1.92474
    128       0.00000           0.071263            1.93915
    129       0.00000           0.072082            1.96145
    130       0.00000           0.078432            2.13425
    131       0.00000           0.083015            2.25896
    132       0.00000           0.089630            2.43894
    133       0.00000           0.093594            2.54683
    134       0.00000           0.097561            2.65478
    135       0.00000           0.104529            2.84439
    136       0.00000           0.104671            2.84823
    137       0.00000           0.111439            3.03241
    138       0.00000           0.112054            3.04916
    139       0.00000           0.117700            3.20277
    140       0.00000           0.122514            3.33377
    141       0.00000           0.129645            3.52782
    142       0.00000           0.132950            3.61774
    143       0.00000           0.133637            3.63645
    144       0.00000           0.134241            3.65288
    145       0.00000           0.135511            3.68745
    146       0.00000           0.140177            3.81440
    147       0.00000           0.140726            3.82936
    148       0.00000           0.141134            3.84044
    149       0.00000           0.142324            3.87283
    150       0.00000           0.146134            3.97650
    151       0.00000           0.148780            4.04850
    152       0.00000           0.156442            4.25699
    153       0.00000           0.157379            4.28251
    154       0.00000           0.161499            4.39460
    155       0.00000           0.166657            4.53497
    156       0.00000           0.168355            4.58117
    157       0.00000           0.170102            4.62872
    158       0.00000           0.170464            4.63856
    159       0.00000           0.172386            4.69087
    160       0.00000           0.180894            4.92239
    161       0.00000           0.182914            4.97734
    162       0.00000           0.184905            5.03152
    163       0.00000           0.186758            5.08196
    164       0.00000           0.188565            5.13113
    165       0.00000           0.191241            5.20394
    166       0.00000           0.192823            5.24698
    167       0.00000           0.194518            5.29310
    168       0.00000           0.201752            5.48995
    169       0.00000           0.205932            5.60369
    170       0.00000           0.209764            5.70797
    171       0.00000           0.211967            5.76791
    172       0.00000           0.212569            5.78431
    173       0.00000           0.216646            5.89524
    174       0.00000           0.217579            5.92062
    175       0.00000           0.218650            5.94977
    176       0.00000           0.221064            6.01545
    177       0.00000           0.226823            6.17217
    178       0.00000           0.227936            6.20245
    179       0.00000           0.230123            6.26196
    180       0.00000           0.230820            6.28093
    181       0.00000           0.232281            6.32070
    182       0.00000           0.235627            6.41173
    183       0.00000           0.239145            6.50746
    184       0.00000           0.246594            6.71016
    185       0.00000           0.247403            6.73218
    186       0.00000           0.250796            6.82450
    187       0.00000           0.253382            6.89488
    188       0.00000           0.258252            7.02741
    189       0.00000           0.262478            7.14239
    190       0.00000           0.273400            7.43960
    191       0.00000           0.274078            7.45804
    192       0.00000           0.275869            7.50677
    193       0.00000           0.278225            7.57089
    194       0.00000           0.279041            7.59310
    195       0.00000           0.283119            7.70405
    196       0.00000           0.291812            7.94060
    197       0.00000           0.293746            7.99323
    198       0.00000           0.300369            8.17346
    199       0.00000           0.301900            8.21513
    200       0.00000           0.302472            8.23069
    201       0.00000           0.304371            8.28236
    202       0.00000           0.310297            8.44361
    203       0.00000           0.311619            8.47957
    204       0.00000           0.317956            8.65202
    205       0.00000           0.322116            8.76521
    206       0.00000           0.323462            8.80185
    207       0.00000           0.332709            9.05348
    208       0.00000           0.333257            9.06837
    209       0.00000           0.339866            9.24824
    210       0.00000           0.345901            9.41244
    211       0.00000           0.353270            9.61298
    212       0.00000           0.354862            9.65630

  Highest occupied state (VBM) at     -6.12438769 eV
  | Occupation number:      2.00000000

  Lowest unoccupied state (CBM) at    -3.84174143 eV
  | Occupation number:      0.00000000

  Overall HOMO-LUMO gap:      2.28264626 eV.

  Total energy components:
  | Sum of eigenvalues            :        -667.67725944 Ha      -18168.42262866 eV
  | XC energy correction          :        -166.91421287 Ha       -4541.96682480 eV
  | XC potential correction       :         214.43432421 Ha        5835.05484603 eV
  | Free-atom electrostatic energy:        -502.09663214 Ha      -13662.74451336 eV
  | Hartree energy correction     :         -30.55528624 Ha        -831.45164237 eV
  | Entropy correction            :           0.00000000 Ha           0.00000000 eV
  | ---------------------------
  | Total energy                  :       -1152.80906648 Ha      -31369.53076316 eV
  | Total energy, T -> 0          :       -1152.80906648 Ha      -31369.53076316 eV  <-- do not rely on this value for anything but (periodic) metals
  | Electronic free energy        :       -1152.80906648 Ha      -31369.53076316 eV

  Derived energy quantities:
  | Kinetic energy                :        1152.82528315 Ha       31369.97204101 eV
  | Electrostatic energy          :       -2138.72013676 Ha      -58197.53597937 eV
  | Energy correction for multipole
  | error in Hartree potential    :          -0.07547911 Ha          -2.05389103 eV
  | Sum of eigenvalues per atom                           :        -394.96570932 eV
  | Total energy (T->0) per atom                          :        -681.94632094 eV  <-- do not rely on this value for anything but (periodic) metals
  | Electronic free energy per atom                       :        -681.94632094 eV

  Self-consistency convergence accuracy:
[...]
     42       2.00000          -0.670562          -18.24692
     43       2.00000          -0.660318          -17.96816
     44       2.00000          -0.651984          -17.74139
     45       2.00000          -0.649896          -17.68458
     46       2.00000          -0.580770          -15.80355
     47       2.00000          -0.579314          -15.76393
     48       2.00000          -0.578128          -15.73165
     49       2.00000          -0.573107          -15.59503
     50       2.00000          -0.565498          -15.38799
     51       2.00000          -0.563428          -15.33167
     52       2.00000          -0.535286          -14.56588
     53       2.00000          -0.521176          -14.18192
     54       2.00000          -0.495100          -13.47235
     55       2.00000          -0.483129          -13.14660
     56       2.00000          -0.482352          -13.12546
     57       2.00000          -0.478999          -13.03424
     58       2.00000          -0.464027          -12.62682
     59       2.00000          -0.454019          -12.35447
     60       2.00000          -0.446459          -12.14876
     61       2.00000          -0.436358          -11.87391
     62       2.00000          -0.426710          -11.61136
     63       2.00000          -0.424352          -11.54720
     64       2.00000          -0.416628          -11.33702
     65       2.00000          -0.396570          -10.79122
     66       2.00000          -0.395853          -10.77171
     67       2.00000          -0.394669          -10.73949
     68       2.00000          -0.387778          -10.55197
     69       2.00000          -0.385097          -10.47903
     70       2.00000          -0.379774          -10.33417
     71       2.00000          -0.376690          -10.25025
     72       2.00000          -0.372998          -10.14979
     73       2.00000          -0.369301          -10.04919
     74       2.00000          -0.363243           -9.88434
     75       2.00000          -0.361306           -9.83164
     76       2.00000          -0.353030           -9.60644
     77       2.00000          -0.341142           -9.28295
     78       2.00000          -0.338797           -9.21912
     79       2.00000          -0.333643           -9.07888
     80       2.00000          -0.331072           -9.00894
     81       2.00000          -0.330418           -8.99112
     82       2.00000          -0.325354           -8.85333
     83       2.00000          -0.321555           -8.74995
     84       2.00000          -0.313015           -8.51756
     85       2.00000          -0.298473           -8.12187
     86       2.00000          -0.297131           -8.08536
     87       2.00000          -0.292210           -7.95145
     88       2.00000          -0.285622           -7.77218
     89       2.00000          -0.283134           -7.70446
     90       2.00000          -0.268329           -7.30161
     91       2.00000          -0.264962           -7.20999
     92       2.00000          -0.261367           -7.11215
     93       2.00000          -0.245192           -6.67200
     94       2.00000          -0.232599           -6.32935
     95       2.00000          -0.220909           -6.01125
     96       2.00000          -0.209332           -5.69621
     97       2.00000          -0.202945           -5.52243
     98       2.00000          -0.179808           -4.89283
     99       0.00000          -0.095443           -2.59714
    100       0.00000          -0.076681           -2.08661
    101       0.00000          -0.072945           -1.98493
    102       0.00000          -0.059021           -1.60604
    103       0.00000          -0.050079           -1.36271
    104       0.00000          -0.042186           -1.14794
    105       0.00000          -0.008832           -0.24034
    106       0.00000          -0.008622           -0.23461
    107       0.00000          -0.005981           -0.16276
    108       0.00000          -0.001644           -0.04473
    109       0.00000          -0.000334           -0.00910
    110       0.00000           0.010127            0.27557
    111       0.00000           0.010805            0.29401
    112       0.00000           0.011091            0.30181
    113       0.00000           0.023831            0.64848
    114       0.00000           0.024370            0.66313
    115       0.00000           0.027387            0.74523
    116       0.00000           0.038599            1.05034
    117       0.00000           0.039409            1.07238
    118       0.00000           0.047208            1.28459
    119       0.00000           0.051900            1.41228
    120       0.00000           0.057598            1.56733
    121       0.00000           0.057944            1.57673
    122       0.00000           0.058724            1.59796
    123       0.00000           0.068300            1.85854
    124       0.00000           0.077758            2.11590
    125       0.00000           0.091328            2.48517
    126       0.00000           0.092066            2.50525
    127       0.00000           0.093093            2.53318
    128       0.00000           0.093935            2.55610
    129       0.00000           0.098356            2.67640
    130       0.00000           0.104500            2.84358
    131       0.00000           0.113458            3.08735
    132       0.00000           0.114082            3.10433
    133       0.00000           0.124069            3.37610
    134       0.00000           0.128466            3.49575
    135       0.00000           0.130724            3.55718
    136       0.00000           0.133749            3.63950
    137       0.00000           0.134802            3.66814
    138       0.00000           0.142821            3.88634
    139       0.00000           0.153583            4.17920
    140       0.00000           0.155162            4.22216
    141       0.00000           0.155208            4.22344
    142       0.00000           0.156093            4.24750
    143       0.00000           0.164866            4.48624
    144       0.00000           0.169292            4.60667
    145       0.00000           0.172256            4.68732
    146       0.00000           0.173245            4.71424
    147       0.00000           0.174903            4.75936
    148       0.00000           0.176000            4.78920
    149       0.00000           0.179847            4.89389
    150       0.00000           0.183340            4.98894
    151       0.00000           0.184299            5.01503
    152       0.00000           0.185183            5.03908
    153       0.00000           0.186235            5.06771
    154       0.00000           0.193632            5.26899
    155       0.00000           0.194504            5.29272
    156       0.00000           0.202639            5.51408
    157       0.00000           0.203843            5.54684
    158       0.00000           0.207140            5.63657
    159       0.00000           0.208401            5.67089
    160       0.00000           0.211673            5.75993
    161       0.00000           0.213691            5.81484
    162       0.00000           0.217499            5.91846
    163       0.00000           0.218740            5.95221
    164       0.00000           0.225484            6.13573
    165       0.00000           0.227811            6.19905
    166       0.00000           0.229634            6.24867
    167       0.00000           0.232470            6.32582
    168       0.00000           0.234174            6.37219
    169       0.00000           0.236889            6.44609
    170       0.00000           0.238603            6.49273
    171       0.00000           0.242126            6.58857
    172       0.00000           0.243770            6.63332
    173       0.00000           0.245726            6.68653
    174       0.00000           0.251114            6.83316
    175       0.00000           0.252900            6.88176
    176       0.00000           0.259213            7.05354
    177       0.00000           0.263126            7.16003
    178       0.00000           0.264322            7.19256
    179       0.00000           0.265297            7.21909
    180       0.00000           0.267384            7.27588
    181       0.00000           0.269034            7.32079
    182       0.00000           0.271142            7.37815
    183       0.00000           0.275232            7.48944
    184       0.00000           0.279599            7.60826
    185       0.00000           0.279793            7.61354
    186       0.00000           0.282116            7.67678
    187       0.00000           0.286283            7.79016
    188       0.00000           0.292247            7.95245
    189       0.00000           0.292950            7.97156
    190       0.00000           0.300092            8.16591
    191       0.00000           0.303510            8.25893
    192       0.00000           0.304164            8.27673
    193       0.00000           0.311363            8.47261
    194       0.00000           0.318724            8.67292
    195       0.00000           0.320871            8.73134
    196       0.00000           0.323353            8.79887
    197       0.00000           0.323944            8.81495
    198       0.00000           0.330946            9.00549
    199       0.00000           0.332449            9.04639
    200       0.00000           0.333986            9.08822
    201       0.00000           0.342110            9.30929
    202       0.00000           0.343713            9.35291
    203       0.00000           0.345279            9.39553
    204       0.00000           0.348341            9.47883
    205       0.00000           0.354408            9.64392
    206       0.00000           0.355543            9.67481
    207       0.00000           0.366894            9.98369
    208       0.00000           0.369490           10.05434
    209       0.00000           0.371324           10.10425
    210       0.00000           0.375482           10.21738
    211       0.00000           0.387335           10.53993
    212       0.00000           0.388543           10.57279

  Highest occupied state (VBM) at     -4.89283351 eV
  | Occupation number:      2.00000000

  Lowest unoccupied state (CBM) at    -2.59714077 eV
  | Occupation number:      0.00000000

  Overall HOMO-LUMO gap:      2.29569274 eV.

  Total energy components:
  | Sum of eigenvalues            :        -656.33136876 Ha      -17859.68523479 eV
  | XC energy correction          :        -167.84595012 Ha       -4567.32068544 eV
  | XC potential correction       :         215.62700690 Ha        5867.50939335 eV
  | Free-atom electrostatic energy:        -502.09663214 Ha      -13662.74451336 eV
  | Hartree energy correction     :         -41.76911129 Ha       -1136.59534749 eV
  | Entropy correction            :           0.00000000 Ha           0.00000000 eV
  | ---------------------------
  | Total energy                  :       -1152.41605541 Ha      -31358.83638773 eV
  | Total energy, T -> 0          :       -1152.41605541 Ha      -31358.83638773 eV  <-- do not rely on this value for anything but (periodic) metals
  | Electronic free energy        :       -1152.41605541 Ha      -31358.83638773 eV

  Derived energy quantities:
  | Kinetic energy                :        1149.70420127 Ha       31285.04308207 eV
  | Electrostatic energy          :       -2134.27430656 Ha      -58076.55878437 eV
  | Energy correction for multipole
  | error in Hartree potential    :          -0.14383976 Ha          -3.91407894 eV
  | Sum of eigenvalues per atom                           :        -388.25402684 eV
  | Total energy (T->0) per atom                          :        -681.71383452 eV  <-- do not rely on this value for anything but (periodic) metals
  | Electronic free energy per atom                       :        -681.71383452 eV
  End evaluation of scaled ZORA corrections.
  | Time for scaled ZORA corrections           :        5.557 s           5.568 s
------------------------------------------------------------

  Energy and forces in a compact form:
  | Total energy uncorrected      :         -0.313588363877331E+05 eV
  | Total energy corrected        :         -0.313588363877331E+05 eV  <-- do not rely on this value for anything but (periodic) metals
  | Electronic free energy        :         -0.313588363877331E+05 eV

  ------------------------------------ 
  Start decomposition of the XC Energy 
  ------------------------------------ 
  X and C from original XC functional choice 
  Hartree-Fock Energy :          0.000000000 Ha              0.000000000 eV
  X Energy            :       -161.235928777 Ha          -4387.452853178 eV
  C Energy            :         -6.610021341 Ha           -179.867832260 eV
  Total XC Energy     :       -167.845950118 Ha          -4567.320685438 eV
  ------------------------------------ 
  LDA X and C from self-consistent density 
  X Energy LDA        :       -146.074905525 Ha          -3974.900420055 eV
  C Energy LDA        :        -12.699376869 Ha           -345.567626888 eV
  ------------------------------------ 
  End decomposition of the XC Energy 
  ------------------------------------ 

------------------------------------------------------------

------------------------------------------------------------------------------
  Final output of selected total energy values:

  The following output summarizes some interesting total energy values
  at the end of a run (AFTER all relaxation, molecular dynamics, etc.).

  | Total energy of the DFT / Hartree-Fock s.c.f. calculation      :         -31358.836387733 eV
  | Final zero-broadening corrected energy (caution - metals only) :         -31358.836387733 eV
  | For reference only, the value of 1 Hartree used in FHI-aims is :             27.211384500 eV

  Before relying on these values, please be sure to understand exactly which
  total energy value is referred to by a given number. Different objects may
  all carry the same name 'total energy'. Definitions:

  Total energy of the DFT / Hartree-Fock s.c.f. calculation:
  | Note that this energy does not include ANY quantities calculated after the
  | s.c.f. cycle, in particular not ANY RPA, MP2, etc. many-body perturbation terms.
  | Scalar relativistic effects have been included in the 'scaled ZORA' approximation.

  Final zero-broadening corrected energy:
  | For metallic systems only, a broadening of the occupation numbers at the Fermi
  | level can be extrapolated back to zero broadening by an electron-gas inspired
  | formula. For all systems that are not real metals, this value can be
  | meaningless and should be avoided.

------------------------------------------------------------------------------
  Methods described in the following list of references were used in this FHI-aims run.
  If you publish the results, please make sure to cite these reference if they apply.
  FHI-aims is an academic code, and for our developers (often, Ph.D. students
  and postdocs), scientific credit in the community is essential.
  Thank you for helping us!

  For any use of FHI-aims, please cite:

    Volker Blum, Ralf Gehrke, Felix Hanke, Paula Havu, Ville Havu,
    Xinguo Ren, Karsten Reuter, and Matthias Scheffler
    'Ab initio molecular simulations with numeric atom-centered orbitals'
    Computer Physics Communications 180, 2175-2196 (2009)
    http://dx.doi.org/10.1016/j.cpc.2009.06.022


  The scalable eigensolver library ELPA was used in your run.
  ELPA is essential especially for large systems on hundreds or thousands of CPUs.
  For ELPA, please cite:

    Andreas Marek, Volker Blum, Rainer Johanni, Ville Havu, Bruno Lang,
    Thomas Auckenthaler, Alexander Heinecke, Hans-Joachim Bungartz, and Hermann Lederer,
    'The ELPA Library - Scalable Parallel Eigenvalue Solutions
    for Electronic Structure Theory and Computational Science'
    The Journal of Physics: Condensed Matter 26, 213201 (2014).
    http://dx.doi.org/10.1088/0953-8984/26/21/213201


  The ELSI infrastructure was used in your run to solve the Kohn-Sham electronic structure.
  Please check out http://elsi-interchange.org to learn more.
  If scalability is important for your project, please acknowledge ELSI by citing:

    V. W-z. Yu, F. Corsetti, A. Garcia, W. P. Huhn, M. Jacquelin, W. Jia,
    B. Lange, L. Lin, J. Lu, W. Mi, A. Seifitokaldani, A. Vazquez-Mayagoitia,
    C. Yang, H. Yang, and V. Blum
    'ELSI: A unified software interface for Kohn-Sham electronic structure solvers'
    Computer Physics Communications 222, 267-285 (2018).
    http://dx.doi.org/10.1016/j.cpc.2017.09.007


  For the real-space grid partitioning and parallelization used in this calculation, please cite:

    Ville Havu, Volker Blum, Paula Havu, and Matthias Scheffler,
    'Efficient O(N) integration for all-electron electronic structure calculation'
    'using numerically tabulated basis functions'
    Journal of Computational Physics 228, 8367-8379 (2009).
    http://dx.doi.org/10.1016/j.jcp.2009.08.008

  Of course, there are many other important community references, e.g., those cited in the
  above references. Our list is limited to references that describe implementations in the
  FHI-aims code. The reason is purely practical (length of this list) - please credit others as well.

------------------------------------------------------------
          Leaving FHI-aims.
          Date     :  20210620, Time     :  174200.854

          Computational steps:
          | Number of self-consistency cycles          :           17
          | Number of SCF (re)initializations          :            1

          Detailed time accounting                     :  max(cpu_time)    wall_clock(cpu1)
          | Total time                                 :       97.956 s         107.098 s
          | Preparation time                           :        0.197 s           0.208 s
          | Boundary condition initalization           :        0.001 s           0.007 s
          | Grid partitioning                          :        0.705 s           0.711 s
          | Preloading free-atom quantities on grid    :        0.013 s           0.022 s
          | Free-atom superposition energy             :        0.062 s           0.063 s
          | Total time for integrations                :       58.217 s          66.824 s
          | Total time for solution of K.-S. equations :        2.645 s           2.702 s
          | Total time for density update              :       21.006 s          20.966 s
          | Total time for mixing                      :        0.126 s           0.137 s
          | Total time for Hartree multipole update    :        0.147 s           0.155 s
          | Total time for Hartree multipole sum       :        8.238 s           8.247 s
          | Total time for total energy evaluation     :        0.005 s           0.038 s
          | Total time for scaled ZORA corrections     :        5.557 s           5.568 s

          Partial memory accounting:
          | Residual value for overall tracked memory usage across tasks :     0.000000 MB (should be 0.000000 MB)
          | Peak values for overall tracked memory usage (after allocating zora_vector2):
          |   Minimum:       28.606 MB (on task 49)
          |   Maximum:       35.944 MB (on task  7)
          |   Average:       32.101 MB
          | Largest tracked array allocation (hamiltonian_shell):
          |   Minimum:        8.537 MB (on task  1)
          |   Maximum:        8.537 MB (on task  1)
          |   Average:        8.537 MB
          Note:  These values currently only include a subset of arrays which are explicitly tracked.
          The "true" memory usage will be greater.

          Have a nice day.
------------------------------------------------------------
