  MPI-parallelism will be employed.
------------------------------------------------------------
          Invoking FHI-aims ...
          Version 180607
          Git rev. (modified): 6724847 Fix JSON memory corruption in scf_solver
          Compiled on 2018/06/27 at 16:00:31 on host coe.psc.edu.

          When using FHI-aims, please cite the following reference:

          Volker Blum, Ralf Gehrke, Felix Hanke, Paula Havu,
          Ville Havu, Xinguo Ren, Karsten Reuter, and Matthias Scheffler,
          'Ab Initio Molecular Simulations with Numeric Atom-Centered Orbitals',
          Computer Physics Communications 180, 2175-2196 (2009)

          For any questions about FHI-aims, please visit the aimsclub website
          with its forums and wiki. Contributions to both the forums and the
          wiki are warmly encouraged - they are for you, and everyone is welcome there.

------------------------------------------------------------



  Date     :  20210620, Time     :  173823.825
  Time zero on CPU 1             :   0.236647000000000E+00  s.
  Internal wall clock time zero  :           393442703.825  s.

  FHI-aims created a unique identifier for this run for later identification
  aims_uuid : 652873D8-8449-4214-AB25-FA24AC7D36D6

  Using       56 parallel tasks.
  Task        0 on host d001 reporting.
  Task        1 on host d001 reporting.
  Task        2 on host d001 reporting.
  Task        3 on host d001 reporting.
  Task        4 on host d001 reporting.
  Task        5 on host d001 reporting.
  Task        6 on host d001 reporting.
  Task        7 on host d001 reporting.
  Task        8 on host d001 reporting.
  Task        9 on host d001 reporting.
  Task       10 on host d001 reporting.
  Task       11 on host d001 reporting.
  Task       12 on host d001 reporting.
  Task       13 on host d001 reporting.
  Task       14 on host d001 reporting.
  Task       15 on host d001 reporting.
  Task       16 on host d001 reporting.
  Task       17 on host d001 reporting.
  Task       18 on host d001 reporting.
  Task       19 on host d001 reporting.
  Task       20 on host d001 reporting.
  Task       21 on host d001 reporting.
  Task       22 on host d001 reporting.
  Task       23 on host d001 reporting.
  Task       24 on host d001 reporting.
  Task       25 on host d001 reporting.
  Task       26 on host d001 reporting.
  Task       27 on host d001 reporting.
  Task       28 on host d001 reporting.
  Task       29 on host d001 reporting.
  Task       30 on host d001 reporting.
  Task       31 on host d001 reporting.
  Task       32 on host d001 reporting.
  Task       33 on host d001 reporting.
  Task       34 on host d001 reporting.
  Task       35 on host d001 reporting.
  Task       36 on host d001 reporting.
  Task       37 on host d001 reporting.
  Task       38 on host d001 reporting.
  Task       39 on host d001 reporting.
  Task       40 on host d001 reporting.
  Task       41 on host d001 reporting.
  Task       42 on host d001 reporting.
  Task       43 on host d001 reporting.
  Task       44 on host d001 reporting.
  Task       45 on host d001 reporting.
  Task       46 on host d001 reporting.
  Task       47 on host d001 reporting.
  Task       48 on host d001 reporting.
  Task       49 on host d001 reporting.
  Task       50 on host d001 reporting.
  Task       51 on host d001 reporting.
  Task       52 on host d001 reporting.
  Task       53 on host d001 reporting.
  Task       54 on host d001 reporting.
  Task       55 on host d001 reporting.

  Performing system and environment tests:
  *** Environment variable OMP_NUM_THREADS is not set
  *** For performance reasons you might want to set it to 1
  | Stacksize not measured: no C compiler
  | Checking for scalapack...
  | Testing pdtran()...
  | All pdtran() tests passed.

  Obtaining array dimensions for all initial allocations:
  
  -----------------------------------------------------------------------
  Parsing control.in (first pass over file, find array dimensions only).
  The contents of control.in will be repeated verbatim below
  unless switched off by setting 'verbatim_writeout .false.' .
  in the first line of control.in .
  -----------------------------------------------------------------------
  
  #===============================================================================
  # FHI-aims file: ./Runs/es/control.in
  # Created using the Atomic Simulation Environment (ASE)
  # Mon Jan 13 16:04:38 2020
  #===============================================================================
  xc                                 pbe
  relativistic                       zora scalar 1e-12
  occupation_type                    gaussian 0.0001
  load_balancing                     .true.
  KS_method                          scalapack_fast
  mixer                              pulay
  n_max_pulay                        5
  charge_mix_param                   0.4
  sc_accuracy_etot                   1e-6
  sc_accuracy_eev                    1e-4
  sc_accuracy_rho                    1e-6
  sc_iter_limit                      100
  prodbas_threshold                  1e-4
  basis_threshold                    1e-5
  override_illconditioning           .true.
  use_logsbt                         .true.
  spin                               none
  charge                             0
  #===============================================================================
  
  ################################################################################
  #
  #  FHI-aims code project
  # Volker Blum, Fritz Haber Institute Berlin, 2009
  #
  #  Suggested "tight" defaults for H atom (to be pasted into control.in file)
  #
  ################################################################################
    species        H
  #     global species definitions
      nucleus             1
      mass                1.00794
  #
      l_hartree           6
  #
      cut_pot             4.0  2.0  1.0
      basis_dep_cutoff    1e-4
  #
      radial_base         24 7.0
      radial_multiplier   2
      angular_grids       specified
        division   0.1930   50
        division   0.3175  110
        division   0.4293  194
        division   0.5066  302
        division   0.5626  434
  #      division   0.5922  590
  #      division   0.6227  974
  #      division   0.6868 1202
  #      outer_grid  770
        outer_grid  434
  ################################################################################
  #
  #  Definition of "minimal" basis
  #
  ################################################################################
  #     valence basis states
      valence      1  s   1.
  #     ion occupancy
      ion_occ      1  s   0.5
  ################################################################################
  #
  #  Suggested additional basis functions. For production calculations,
  #  uncomment them one after another (the most important basis functions are
  #  listed first).
  #
  #  Basis constructed for dimers: 0.5 A, 0.7 A, 1.0 A, 1.5 A, 2.5 A
  #
  ################################################################################
  #  "First tier" - improvements: -1014.90 meV to -62.69 meV
       hydro 2 s 2.1
       hydro 2 p 3.5
  #  "Second tier" - improvements: -12.89 meV to -1.83 meV
       hydro 1 s 0.85
       hydro 2 p 3.7
       hydro 2 s 1.2
       hydro 3 d 7
  #  "Third tier" - improvements: -0.25 meV to -0.12 meV
  #     hydro 4 f 11.2
  #     hydro 3 p 4.8
  #     hydro 4 d 9
  #     hydro 3 s 3.2
  ################################################################################
  #
  # For methods that use the localized form of the "resolution of identity" for
  # the two-electron Coulomb operator (RI_method LVL), particularly Hartree-Fock and
  # hybrid density functional calculations, the highest accuracy can be obtained by
  # uncommenting the line beginning with "for_aux"  below, thus adding an extra g radial
  # function to the construction of the product basis set for the expansion.
  # See Ref. New J. Phys. 17, 093020 (2015) for more information, particularly Figs. 1 and 6.
  #
  ################################################################################
  #
  # for_aux hydro 5 g 6.0
  ################################################################################
  #
  #  FHI-aims code project
  # Volker Blum, Fritz Haber Institute Berlin, 2009
  #
  #  Suggested "tight" defaults for C atom (to be pasted into control.in file)
  #
  ################################################################################
    species        C
  #     global species definitions
      nucleus             6
      mass                12.0107
  #
      l_hartree           6
  #
      cut_pot             4.0  2.0  1.0
      basis_dep_cutoff    1e-4
  #
      radial_base         34 7.0
      radial_multiplier   2
      angular_grids specified
        division   0.2187   50
        division   0.4416  110
        division   0.6335  194
        division   0.7727  302
        division   0.8772  434
  #      division   0.9334  590
  #      division   0.9924  770
  #      division   1.0230  974
  #      division   1.5020 1202
  #     outer_grid  974
        outer_grid  434
  ################################################################################
  #
  #  Definition of "minimal" basis
  #
  ################################################################################
  #     valence basis states
      valence      2  s   2.
      valence      2  p   2.
  #     ion occupancy
      ion_occ      2  s   1.
      ion_occ      2  p   1.
  ################################################################################
  #
  #  Suggested additional basis functions. For production calculations,
  #  uncomment them one after another (the most important basis functions are
  #  listed first).
  #
  #  Constructed for dimers: 1.0 A, 1.25 A, 1.5 A, 2.0 A, 3.0 A
  #
  ################################################################################
  #  "First tier" - improvements: -1214.57 meV to -155.61 meV
       hydro 2 p 1.7
       hydro 3 d 6
       hydro 2 s 4.9
  #  "Second tier" - improvements: -67.75 meV to -5.23 meV
       hydro 4 f 9.8
       hydro 3 p 5.2
       hydro 3 s 4.3
       hydro 5 g 14.4
       hydro 3 d 6.2
  #  "Third tier" - improvements: -2.43 meV to -0.60 meV
  #     hydro 2 p 5.6
  #     hydro 2 s 1.4
  #     hydro 3 d 4.9
  #     hydro 4 f 11.2
  #  "Fourth tier" - improvements: -0.39 meV to -0.18 meV
  #     hydro 2 p 2.1
  #     hydro 5 g 16.4
  #     hydro 4 d 13.2
  #     hydro 3 s 13.6
  #     hydro 4 f 17.6
  #  Further basis functions - improvements: -0.08 meV and below
  #     hydro 3 s 2
  #     hydro 3 p 6
  #     hydro 4 d 20
  ################################################################################
  #
  # For methods that use the localized form of the "resolution of identity" for
  # the two-electron Coulomb operator (RI_method LVL), particularly Hartree-Fock and
  # hybrid density functional calculations, the highest accuracy can be obtained by
  # uncommenting the line beginning with "for_aux"  below, thus adding an extra g radial
  # function to the construction of the product basis set for the expansion.
  # See Ref. New J. Phys. 17, 093020 (2015) for more information, particularly Figs. 1 and 6.
  #
  ################################################################################
  #
  # for_aux hydro 5 g 6.0
  
  -----------------------------------------------------------------------
  Completed first pass over input file control.in .
  -----------------------------------------------------------------------
  
  
  -----------------------------------------------------------------------
  Parsing geometry.in (first pass over file, find array dimensions only).
  The contents of geometry.in will be repeated verbatim below
  unless switched off by setting 'verbatim_writeout .false.' .
  in the first line of geometry.in .
  -----------------------------------------------------------------------
  
  #=======================================================
  # FHI-aims file: geometry.in
  # Created using the Atomic Simulation Environment (ASE)
  # Sun Jun 20 15:47:02 2021
  #=======================================================
  atom 16.5437499999999993 19.8713219999999993 41.8713189999999997 H
  atom 17.2035620000000016 20.2864910000000016 42.6289110000000022 C
  atom 16.7528240000000004 20.2659720000000014 43.9641799999999989 C
  atom 18.4313840000000013 20.8148559999999989 42.2511220000000023 C
  atom 15.7715870000000002 19.8476399999999984 44.1793400000000034 H
  atom 17.5510570000000001 20.7780929999999984 44.9642890000000008 C
  atom 18.9291960000000010 20.8370849999999983 40.8708749999999981 C
  atom 19.2649059999999999 21.3543360000000000 43.2816090000000031 C
  atom 17.4648789999999998 20.9354060000000004 46.4289559999999994 C
  atom 18.7958770000000008 21.3227019999999996 44.5915350000000004 C
  atom 18.2322309999999987 20.3463379999999994 39.7650319999999979 C
  atom 20.2199029999999986 21.3936640000000011 40.6342319999999972 C
  atom 20.5556139999999985 21.9109149999999993 43.0449660000000023 C
  atom 16.4937770000000015 20.5626430000000013 47.3335689999999971 C
  atom 18.6557169999999992 21.5808999999999997 46.8767309999999995 C
  atom 19.5091569999999983 21.8117400000000004 45.7015740000000008 C
  atom 17.2412649999999985 19.9203970000000012 39.9031570000000002 H
  atom 18.7418920000000000 20.3839560000000013 38.4438609999999983 C
  atom 20.6889320000000012 21.4252980000000015 39.3243060000000000 C
  atom 21.0534250000000007 21.9331439999999986 41.6647180000000006 C
  atom 21.2525779999999997 22.4016620000000017 44.1508090000000024 C
  atom 15.5888050000000007 20.0501800000000010 47.0039480000000012 H
  atom 16.6754940000000005 20.8524740000000008 48.6862920000000017 C
  atom 18.8151100000000007 21.8579070000000009 48.2146850000000029 C
  atom 20.7429169999999985 22.3640439999999998 45.4719800000000021 C
  atom 18.1279700000000012 19.9802439999999990 37.6387720000000030 H
  atom 19.9756520000000002 20.9362600000000008 38.2142669999999995 C
  atom 21.9337519999999984 21.9699069999999992 38.9515510000000020 C
  atom 22.2812470000000005 22.4615089999999995 41.2869290000000007 C
  atom 22.2435440000000000 22.8276029999999999 44.0126840000000001 H
  atom 15.9145219999999998 20.5497329999999998 49.4051150000000021 H
  atom 17.8232830000000000 21.4979690000000012 49.1176200000000023 C
  atom 19.7129030000000007 22.3677199999999985 48.5699850000000026 H
  atom 21.3568390000000008 22.7677559999999986 46.2770689999999973 H
  atom 20.8290919999999993 21.1671000000000014 37.0391090000000034 C
  atom 22.0199299999999987 21.8125940000000007 37.4868840000000034 C
  atom 22.7319850000000017 22.4820279999999997 39.9516599999999968 C
  atom 22.9410589999999992 22.8766779999999983 42.0445210000000031 H
  atom 17.9574649999999991 21.7247899999999987 50.1761339999999976 H
  atom 20.6696990000000014 20.8900930000000002 35.7011550000000000 C
  atom 22.9910320000000006 22.1853569999999998 36.5822720000000032 C
  atom 23.7132219999999982 22.9003599999999992 39.7364999999999995 H
  atom 19.7719060000000013 20.3802799999999991 35.3458559999999977 H
  atom 21.6615259999999985 21.2500309999999999 34.7982209999999981 C
  atom 22.8093150000000016 21.8955260000000003 35.2295480000000012 C
  atom 23.8960040000000014 22.6978200000000001 36.9118929999999992 H
  atom 21.5273439999999994 21.0232099999999988 33.7397059999999982 H
  atom 23.5702870000000004 22.1982670000000013 34.5107250000000008 H
  
  -----------------------------------------------------------------------
  Completed first pass over input file geometry.in .
  -----------------------------------------------------------------------
  

  Basic array size parameters:
  | Number of species                 :        2
  | Number of atoms                   :       48
  | Max. basis fn. angular momentum   :        4
  | Max. atomic/ionic basis occupied n:        2
  | Max. number of basis fn. types    :        2
  | Max. radial fns per species/type  :        8
  | Max. logarithmic grid size        :     1277
  | Max. radial integration grid size :       69
  | Max. angular integration grid size:      434
  | Max. angular grid division number :        8
  | Radial grid for Hartree potential :     1277
  | Number of spin channels           :        1

------------------------------------------------------------
          Reading file control.in.
------------------------------------------------------------
  XC: Using PBE gradient-corrected functionals.
  Scalar relativistic treatment of kinetic energy: ZORA.
  Threshold value for ZORA:   0.100000E-11
  Occupation type: Gaussian broadening, width =   0.100000E-03 eV.
  Since 'load_balancing .true.' is present in control.in, automatically turning on 'use_local_index .true.'.
  Using load balancing for integrations.
  Kohn-Sham electronic structure solved by the ELSI library.
  Using pulay charge density mixing.
  Pulay mixing - number of memorized iterations:    5
  Charge density mixing - mixing parameter:     0.4000
  Convergence accuracy of total energy:  0.1000E-05
  Convergence accuracy of sum of eigenvalues:  0.1000E-03
  Convergence accuracy of self-consistent charge density:  0.1000E-05
  Maximum number of s.-c. iterations  :   100
  * Ignoring prodbas_threshold
  Threshold for basis singularities:  0.1000E-04
  override_illconditioning: Explicitly overriding any built-in checks for an ill-conditioned overlap matrix.
  *** WARNING: If you use this flag, you should really know what you are doing.
  *** DO NOT keep this flag set by default in all your control.in files.
  Using 1D integrations for auxiliary 2-center integrals.
  Spin treatment: No spin polarisation.
  Charge =   0.000000E+00: Neutral system requested explicitly.
 
  Reading configuration options for species H                   .
  | Found nuclear charge :   1.0000
  | Found atomic mass :    1.00794000000000      amu
  | Found l_max for Hartree potential  :   6
  | Found cutoff potl. onset [A], width [A], scale factor :    4.00000    2.00000    1.00000
  | Threshold for basis-dependent cutoff potential is   0.100000E-03
  | Found data for basic radial integration grid :    24 points, outermost radius =    7.000 A
  | Found multiplier for basic radial grid :   2
  | Found angular grid specification: user-specified.
  | Specified grid contains     6 separate shells.
  | Check grid settings after all constraints further below.
  | Found free-atom valence shell :  1 s   1.000
  | No ionic wave fns used. Skipping ion_occ.
  | Found hydrogenic basis function :  2 s   2.100
  | Found hydrogenic basis function :  2 p   3.500
  | Found hydrogenic basis function :  1 s   0.850
  | Found hydrogenic basis function :  2 p   3.700
  | Found hydrogenic basis function :  2 s   1.200
  | Found hydrogenic basis function :  3 d   7.000
  Species H                   : Missing cutoff potential type.
  Defaulting to exp(1/x)/(1-x)^2 type cutoff potential.
  Species H : No 'logarithmic' tag. Using default grid for free atom:
  | Default logarithmic grid data [bohr] : 0.1000E-03 0.1000E+03 0.1012E+01
  Species H : On-site basis accuracy parameter (for Gram-Schmidt orthonormalisation) not specified.
  Using default value basis_acc =  0.1000000E-03.
  Species H                   : Using default innermost maximum threshold i_radial=  2 for radial functions.
  Species H                   : Default cutoff onset for free atom density etc. : 0.40000000E+01 AA.
  Species H                   : Basic radial grid will be enhanced according to radial_multiplier =   2, to contain    49 grid points.
 
  Reading configuration options for species C                   .
  | Found nuclear charge :   6.0000
  | Found atomic mass :    12.0107000000000      amu
  | Found l_max for Hartree potential  :   6
  | Found cutoff potl. onset [A], width [A], scale factor :    4.00000    2.00000    1.00000
  | Threshold for basis-dependent cutoff potential is   0.100000E-03
  | Found data for basic radial integration grid :    34 points, outermost radius =    7.000 A
  | Found multiplier for basic radial grid :   2
  | Found angular grid specification: user-specified.
  | Specified grid contains     6 separate shells.
  | Check grid settings after all constraints further below.
  | Found free-atom valence shell :  2 s   2.000
  | Found free-atom valence shell :  2 p   2.000
  | No ionic wave fns used. Skipping ion_occ.
  | No ionic wave fns used. Skipping ion_occ.
  | Found hydrogenic basis function :  2 p   1.700
  | Found hydrogenic basis function :  3 d   6.000
  | Found hydrogenic basis function :  2 s   4.900
  | Found hydrogenic basis function :  4 f   9.800
  | Found hydrogenic basis function :  3 p   5.200
  | Found hydrogenic basis function :  3 s   4.300
  | Found hydrogenic basis function :  5 g  14.400
  | Found hydrogenic basis function :  3 d   6.200
  Species C                   : Missing cutoff potential type.
  Defaulting to exp(1/x)/(1-x)^2 type cutoff potential.
  Species C : No 'logarithmic' tag. Using default grid for free atom:
  | Default logarithmic grid data [bohr] : 0.1000E-03 0.1000E+03 0.1012E+01
  Species C : On-site basis accuracy parameter (for Gram-Schmidt orthonormalisation) not specified.
  Using default value basis_acc =  0.1000000E-03.
  Species C                   : Using default innermost maximum threshold i_radial=  2 for radial functions.
  Species C                   : Default cutoff onset for free atom density etc. : 0.40000000E+01 AA.
  Species C                   : Basic radial grid will be enhanced according to radial_multiplier =   2, to contain    69 grid points.
 
  Finished reading input file 'control.in'. Consistency checks are next.
 
  MPI_IN_PLACE appears to work with this MPI implementation.
  | Keeping use_mpi_in_place .true. (see manual).
  Target number of points in a grid batch is not set. Defaulting to  100
  Method for grid partitioning is not set. Defaulting to parallel hash+maxmin partitioning.
  Batch size limit is not set. Defaulting to    200
  By default, will store active basis functions for each batch.
  If in need of memory, prune_basis_once .false. can be used to disable this option.
  communication_type for Hartree potential was not specified.
  Defaulting to calc_hartree .
  Pulay mixer: Number of initial linear mixing iterations not set.
  Defaulting to    0 iterations.
  Work space size for distributed Hartree potential not set.
  Defaulting to   0.200000E+03 MB.
  Algorithm-dependent basis array size parameters:
  | n_max_pulay                         :        5
  Presetting      1001 iterations before the initial mixing cycle
  is restarted anyway using the sc_init_iter criterion / keyword.
  Presetting a factor      1.000 between actual scf density residual
  and density convergence criterion sc_accuracy_rho below which sc_init_iter
  takes no effect.
  Calculation of forces was not defined in control.in. No forces will be calculated.
  Geometry relaxation not requested: no relaxation will be performed.
  No accuracy limit for integral partition fn. given. Defaulting to  0.1000E-14.
  No threshold value for u(r) in integrations given. Defaulting to  0.1000E-05.
  No accuracy for occupation numbers given. Defaulting to  0.1000E-12.
  No threshold value for occupation numbers given. Defaulting to  0.0000E+00.
  No accuracy for fermi level given. Defaulting to  0.1000E-19.
  Maximum # of iterations to find E_F not set. Defaulting to  200.
  Will not use alltoall communication since running on < 1024 CPUs.
  partition_type (choice of integration weights) for integrals was not specified.
  | Using a version of the partition function of Stratmann and coworkers ('stratmann_sparse').
  | At each grid point, the set of atoms used to build the partition table is smoothly restricted to
  | only those atoms whose free-atom density would be non-zero at that grid point.
  Partitioning for Hartree potential was not defined. Using partition_type for integrals.
  | Adjusted default value of keyword multip_moments_threshold to:       0.10000000E-11
  | This value may affect high angular momentum components of the Hartree potential in periodic systems.
  No q(lm)/r^(l+1) cutoff set for long-range Hartree potential.
  | Using default value of  0.100000E-09 .
  | Verify using the multipole_threshold keyword.
  Defaulting to new monopole extrapolation.
  Density update method: automatic selection selected.
 * Warning: use_local_index and/or load_balancing needs packed_matrix_format = index
 * Changing the default setting to packed_matrix_format = index
------------------------------------------------------------


------------------------------------------------------------
          Reading geometry description geometry.in.
------------------------------------------------------------
  Input structure read successfully.
  The structure contains       48 atoms,  and a total of        208.000 electrons.

  Input geometry:
  | No unit cell requested.
  | Atomic structure:
  |       Atom                x [A]            y [A]            z [A]
  |    1: Species H            16.54375000       19.87132200       41.87131900
  |    2: Species C            17.20356200       20.28649100       42.62891100
  |    3: Species C            16.75282400       20.26597200       43.96418000
  |    4: Species C            18.43138400       20.81485600       42.25112200
  |    5: Species H            15.77158700       19.84764000       44.17934000
  |    6: Species C            17.55105700       20.77809300       44.96428900
  |    7: Species C            18.92919600       20.83708500       40.87087500
  |    8: Species C            19.26490600       21.35433600       43.28160900
  |    9: Species C            17.46487900       20.93540600       46.42895600
  |   10: Species C            18.79587700       21.32270200       44.59153500
  |   11: Species C            18.23223100       20.34633800       39.76503200
  |   12: Species C            20.21990300       21.39366400       40.63423200
  |   13: Species C            20.55561400       21.91091500       43.04496600
  |   14: Species C            16.49377700       20.56264300       47.33356900
  |   15: Species C            18.65571700       21.58090000       46.87673100
  |   16: Species C            19.50915700       21.81174000       45.70157400
  |   17: Species H            17.24126500       19.92039700       39.90315700
  |   18: Species C            18.74189200       20.38395600       38.44386100
  |   19: Species C            20.68893200       21.42529800       39.32430600
  |   20: Species C            21.05342500       21.93314400       41.66471800
  |   21: Species C            21.25257800       22.40166200       44.15080900
  |   22: Species H            15.58880500       20.05018000       47.00394800
  |   23: Species C            16.67549400       20.85247400       48.68629200
  |   24: Species C            18.81511000       21.85790700       48.21468500
  |   25: Species C            20.74291700       22.36404400       45.47198000
  |   26: Species H            18.12797000       19.98024400       37.63877200
  |   27: Species C            19.97565200       20.93626000       38.21426700
  |   28: Species C            21.93375200       21.96990700       38.95155100
  |   29: Species C            22.28124700       22.46150900       41.28692900
  |   30: Species H            22.24354400       22.82760300       44.01268400
  |   31: Species H            15.91452200       20.54973300       49.40511500
  |   32: Species C            17.82328300       21.49796900       49.11762000
  |   33: Species H            19.71290300       22.36772000       48.56998500
  |   34: Species H            21.35683900       22.76775600       46.27706900
  |   35: Species C            20.82909200       21.16710000       37.03910900
  |   36: Species C            22.01993000       21.81259400       37.48688400
  |   37: Species C            22.73198500       22.48202800       39.95166000
  |   38: Species H            22.94105900       22.87667800       42.04452100
  |   39: Species H            17.95746500       21.72479000       50.17613400
  |   40: Species C            20.66969900       20.89009300       35.70115500
  |   41: Species C            22.99103200       22.18535700       36.58227200
  |   42: Species H            23.71322200       22.90036000       39.73650000
  |   43: Species H            19.77190600       20.38028000       35.34585600
  |   44: Species C            21.66152600       21.25003100       34.79822100
  |   45: Species C            22.80931500       21.89552600       35.22954800
  |   46: Species H            23.89600400       22.69782000       36.91189300
  |   47: Species H            21.52734400       21.02321000       33.73970600
  |   48: Species H            23.57028700       22.19826700       34.51072500
  |

  | The smallest distance between any two atoms is         1.08704315 AA.
  |
  | The first atom of this pair is atom number                     29 .
  | The second atom of this pair is atom number                    38 .

  Number of empty states per atom not set in control.in - providing a guess from actual geometry.
  | Total number of empty states used during s.c.f. cycle:      120
  If you use a very high smearing, use empty_states (per atom!) in control.in to increase this value.

  Structure-dependent array size parameters: 
  | Maximum number of distinct radial functions  :       18
  | Maximum number of basis functions            :     1488
  | Number of Kohn-Sham states (occupied + empty):      224
------------------------------------------------------------

------------------------------------------------------------
          Preparing all fixed parts of the calculation.
------------------------------------------------------------
  Determining machine precision:
    2.225073858507201E-308
  Setting up grids for atomic and cluster calculations.

  Creating wave function, potential, and density for free atoms.

  Species: H

  List of occupied orbitals and eigenvalues:
    n    l              occ      energy [Ha]    energy [eV]
    1    0           1.0000        -0.238386        -6.4868


  Species: C

  List of occupied orbitals and eigenvalues:
    n    l              occ      energy [Ha]    energy [eV]
    1    0           2.0000       -10.049212      -273.4530
    2    0           2.0000        -0.504761       -13.7352
    2    1           2.0000        -0.193631        -5.2690

  Creating fixed part of basis set: Ionic, confined, hydrogenic.
 
  H                    hydrogenic:
 
  List of hydrogenic basis orbitals: 
    n    l      effective z      eigenvalue [eV]  inner max. [A]     outer max. [A]     outer radius [A]   
    2    0         2.100000       -14.9965           0.193243           1.317208           5.373006
    2    1         3.500000       -41.6672           0.602369           0.602369           4.056063
    1    0         0.850000        -9.8292           0.624871           0.624871           5.373006
    2    1         3.700000       -46.5653           0.573622           0.573622           3.910002
    2    0         1.200000        -4.5995           0.334980           2.228188           5.505995
    3    2         7.000000       -74.0753           0.680699           0.680699           3.769201
 
 
  C                    hydrogenic:
 
  List of hydrogenic basis orbitals: 
    n    l      effective z      eigenvalue [eV]  inner max. [A]     outer max. [A]     outer radius [A]   
    2    1         1.700000        -9.8152           1.245706           1.245706           5.401630
    3    2         6.000000       -54.4226           0.792453           0.792453           4.178599
    2    0         4.900000       -81.6681           0.082559           0.562749           3.353238
    4    3         9.800000       -81.6681           0.863254           0.863254           4.028125
    3    1         5.200000       -40.8774           0.305389           1.215618           4.898362
    3    0         4.300000       -27.9508           0.091041           1.610311           5.401630
    5    4        14.400000      -112.8510           0.917666           0.917666           3.883070
    3    2         6.200000       -58.1113           0.763917           0.763917           4.077671
 

  Adding cutoff potential to free-atom effective potential.
  Creating atomic-like basis functions for current effective potential.

  Species H                   :

  List of atomic basis orbitals and eigenvalues:
    n    l      energy [Ha]    energy [eV]    outer radius [A]
    1    0        -0.238386        -6.4868       5.373006


  Species C                   :

  List of atomic basis orbitals and eigenvalues:
    n    l      energy [Ha]    energy [eV]    outer radius [A]
    1    0       -10.049212      -273.4530       1.934409
    2    0        -0.504761       -13.7352       5.271162
    2    1        -0.193631        -5.2690       5.401630

  Assembling full basis from fixed parts.
  | Species H :   atomic orbital   1 s accepted.
  | Species H :    hydro orbital   2 s accepted.
  | Species H :    hydro orbital   1 s accepted.
  | Species H :    hydro orbital   2 s accepted.
  | Species H :    hydro orbital   2 p accepted.
  | Species H :    hydro orbital   2 p accepted.
  | Species H :    hydro orbital   3 d accepted.
  | Species C :   atomic orbital   1 s accepted.
  | Species C :    hydro orbital   2 s accepted.
  | Species C :   atomic orbital   2 s accepted.
  | Species C :    hydro orbital   3 s accepted.
  | Species C :    hydro orbital   3 p accepted.
  | Species C :   atomic orbital   2 p accepted.
  | Species C :    hydro orbital   2 p accepted.
  | Species C :    hydro orbital   3 d accepted.
  | Species C :    hydro orbital   3 d accepted.
  | Species C :    hydro orbital   4 f accepted.
  | Species C :    hydro orbital   5 g accepted.
 
  Basis size parameters after reduction:
  | Total number of radial functions:       18
  | Total number of basis functions :     1488
 
  Per-task memory consumption for arrays in subroutine allocate_ext:
  |           4.448056MB.
  Testing on-site integration grid accuracy.
  |  Species  Function  <phi|h_atom|phi> (log., in eV)  <phi|h_atom|phi> (rad., in eV)
           1        1                 -6.4870767962                 -6.4871688290
           1        2                 13.5032046589                 13.5028982997
           1        3                 32.8195184817                 32.8119941656
           1        4                 33.8513856511                 33.7670005767 ***
           1        5                 28.8544614965                 28.8544615203
           1        6                 59.6326952547                 59.6327656460
           1        7                 60.2719308513                 60.2719305949
           2        8               -273.4529726040               -273.4529710464
           2        9                -10.7721037319                -10.7721022101
           2       10                 17.6044132601                 17.6044162063
           2       11                 53.7706460658                 53.7706913770
           2       12                 15.0973290362                 15.0973256030
           2       13                  3.8545134692                  3.8545724687
           2       14                 12.1156992592                 12.1182024431
           2       15                 29.4352039302                 29.4352041816
           2       16                 54.8741144708                 54.8740268729
           2       17                 59.3556032049                 59.3556031382
           2       18                 93.4551837154                 93.4551838009
 * Note: Onsite integrals marked "***" above are less accurate than
 * onsite_accuracy_threshold =    0.03000 eV. Usually, this is harmless.
 * When in doubt, tighten the "radial" and/or "radial_multiplier" flags to check.

  Preparing densities etc. for the partition functions (integrals / Hartree potential).

  Preparations completed.
  max(cpu_time)          :      0.195 s.
  Wall clock time (cpu1) :      0.210 s.
------------------------------------------------------------

------------------------------------------------------------
          Begin self-consistency loop: Initialization.

          Date     :  20210620, Time     :  173824.193
------------------------------------------------------------

  Initializing index lists of integration centers etc. from given atomic structure:
  | Number of centers in hartree potential         :        48
  | Number of centers in hartree multipole         :        48
  | Number of centers in electron density summation:        48
  | Number of centers in basis integrals           :        48
  | Number of centers in integrals                 :        48
  | Number of centers in hamiltonian               :        48
  * Using 56 tasks for Scalapack Eigenvalue solver.
  Detailed listing of tasks and assigned k-points:
  (for non-periodic systems, the "k-point" denotes an internal label only)
   Task     0 k-point     1 on d001
   Task     1 k-point     1 on d001
   Task     2 k-point     1 on d001
   Task     3 k-point     1 on d001
   Task     4 k-point     1 on d001
   Task     5 k-point     1 on d001
   Task     6 k-point     1 on d001
   Task     7 k-point     1 on d001
   Task     8 k-point     1 on d001
   Task     9 k-point     1 on d001
   Task    10 k-point     1 on d001
   Task    11 k-point     1 on d001
   Task    12 k-point     1 on d001
   Task    13 k-point     1 on d001
   Task    14 k-point     1 on d001
   Task    15 k-point     1 on d001
   Task    16 k-point     1 on d001
   Task    17 k-point     1 on d001
   Task    18 k-point     1 on d001
   Task    19 k-point     1 on d001
   Task    20 k-point     1 on d001
   Task    21 k-point     1 on d001
   Task    22 k-point     1 on d001
   Task    23 k-point     1 on d001
   Task    24 k-point     1 on d001
   Task    25 k-point     1 on d001
   Task    26 k-point     1 on d001
   Task    27 k-point     1 on d001
   Task    28 k-point     1 on d001
   Task    29 k-point     1 on d001
   Task    30 k-point     1 on d001
   Task    31 k-point     1 on d001
   Task    32 k-point     1 on d001
   Task    33 k-point     1 on d001
   Task    34 k-point     1 on d001
   Task    35 k-point     1 on d001
   Task    36 k-point     1 on d001
   Task    37 k-point     1 on d001
   Task    38 k-point     1 on d001
   Task    39 k-point     1 on d001
   Task    40 k-point     1 on d001
   Task    41 k-point     1 on d001
   Task    42 k-point     1 on d001
   Task    43 k-point     1 on d001
   Task    44 k-point     1 on d001
   Task    45 k-point     1 on d001
   Task    46 k-point     1 on d001
   Task    47 k-point     1 on d001
   Task    48 k-point     1 on d001
   Task    49 k-point     1 on d001
   Task    50 k-point     1 on d001
   Task    51 k-point     1 on d001
   Task    52 k-point     1 on d001
   Task    53 k-point     1 on d001
   Task    54 k-point     1 on d001
   Task    55 k-point     1 on d001
  Tasks:    56 split into      8 X      7 BLACS grid
  Calculating block size based on n_basis =         1488 max_nprow =            8 max_npcol =            7
  ScaLAPACK block size set to:           16
  Allocating        0.344 MB for ovlp
  Allocating        0.344 MB for ham
  Allocating        0.344 MB for eigenvec
  Required Scalapack workspace - INTEGER:            1 REAL:             1
  Partitioning the integration grid into batches with parallel hashing+maxmin method.
  | Number of batches:     7415
  | Maximal batch size:     199
  | Minimal batch size:      49
  | Average batch size:     109.197
  | Standard deviation of batch sizes:      33.432

  Integration load balanced across     56 MPI tasks.
  Work distribution over tasks is as follows:
  Task      0 has      14532 integration points.
  Task      1 has      14552 integration points.
  Task      2 has      14451 integration points.
  Task      3 has      14551 integration points.
  Task      4 has      14361 integration points.
  Task      5 has      14470 integration points.
  Task      6 has      14332 integration points.
  Task      7 has      14486 integration points.
  Task      8 has      14521 integration points.
  Task      9 has      14441 integration points.
  Task     10 has      14514 integration points.
  Task     11 has      14384 integration points.
  Task     12 has      14531 integration points.
  Task     13 has      14319 integration points.
  Task     14 has      14558 integration points.
  Task     15 has      14542 integration points.
  Task     16 has      14294 integration points.
  Task     17 has      14625 integration points.
  Task     18 has      14374 integration points.
  Task     19 has      14437 integration points.
  Task     20 has      14397 integration points.
  Task     21 has      14578 integration points.
  Task     22 has      14582 integration points.
  Task     23 has      14266 integration points.
  Task     24 has      14559 integration points.
  Task     25 has      14395 integration points.
  Task     26 has      14493 integration points.
  Task     27 has      14332 integration points.
  Task     28 has      14539 integration points.
  Task     29 has      14590 integration points.
  Task     30 has      14399 integration points.
  Task     31 has      14555 integration points.
  Task     32 has      14418 integration points.
  Task     33 has      14495 integration points.
  Task     34 has      14301 integration points.
  Task     35 has      14569 integration points.
  Task     36 has      14411 integration points.
  Task     37 has      14389 integration points.
  Task     38 has      14530 integration points.
  Task     39 has      14445 integration points.
  Task     40 has      14528 integration points.
  Task     41 has      14299 integration points.
  Task     42 has      14506 integration points.
  Task     43 has      14455 integration points.
  Task     44 has      14435 integration points.
  Task     45 has      14596 integration points.
  Task     46 has      14430 integration points.
  Task     47 has      14460 integration points.
  Task     48 has      14353 integration points.
  Task     49 has      14476 integration points.
  Task     50 has      14457 integration points.
  Task     51 has      14434 integration points.
  Task     52 has      14497 integration points.
  Task     53 has      14390 integration points.
  Task     54 has      14452 integration points.
  Task     55 has      14410 integration points.
  Initializing partition tables, free-atom densities, potentials, etc. across the integration grid (initialize_grid_storage).
  | initialize_grid_storage: Actual outermost partition radius vs. multipole_radius_free
  | (-- VB: in principle, multipole_radius_free should be larger, hence this output)
  | Species        1: Confinement radius =              6.000000000000000 AA, multipole_radius_free =              6.071692442739658 AA.
  | Species        1: outer_partition_radius set to              6.071692442739658 AA .
  | Species        2: Confinement radius =              6.000000000000000 AA, multipole_radius_free =              6.029870734432609 AA.
  | Species        2: outer_partition_radius set to              6.029870734432609 AA .
  | The sparse table of interatomic distances needs     26.7880 kbyte instead of    18.4320 kbyte of memory.
  | Using the partition_type stratmann_smoother will reduce your memory usage.
  | Net number of integration points:   809696
  | of which are non-zero points    :   649362
  Renormalizing the initial density to the exact electron count on the 3D integration grid.
  | Initial density: Formal number of electrons (from input files) :     208.0000000000
  | Integrated number of electrons on 3D grid     :     207.9997117855
  | Charge integration error                      :      -0.0002882145
  | Normalization factor for density and gradient :       1.0000013856
  Obtaining max. number of non-zero basis functions in each batch (get_n_compute_maxes).
  | Maximal number of non-zero basis functions:      909
  Selecting the method for density update.
  Loop over occupied states selected for charge density update.
  Hamiltonian matrix size:
  | Size of matrix non-packed:               1107816
  | Size of matrix packed:          890532
  Allocating        2.666 MB for KS_eigenvector
  use_local_index: Max. local matrix size =       638370
  Task:     0 matrix size:     150258
  Task:     1 matrix size:     250337
  Task:     2 matrix size:     325295
  Task:     3 matrix size:     259868
  Task:     4 matrix size:     393584
  Task:     5 matrix size:     598194
  Task:     6 matrix size:     638370
  Task:     7 matrix size:     155232
  Task:     8 matrix size:     350669
  Task:     9 matrix size:     338107
  Task:    10 matrix size:     515776
  Task:    11 matrix size:     592621
  Task:    12 matrix size:     619154
  Task:    13 matrix size:     620936
  Task:    14 matrix size:     163306
  Task:    15 matrix size:     163306
  Task:    16 matrix size:     142845
  Task:    17 matrix size:     552264
  Task:    18 matrix size:     459925
  Task:    19 matrix size:     338301
  Task:    20 matrix size:     551702
  Task:    21 matrix size:     112101
  Task:    22 matrix size:     268051
  Task:    23 matrix size:     150924
  Task:    24 matrix size:     536524
  Task:    25 matrix size:     501794
  Task:    26 matrix size:     356746
  Task:    27 matrix size:     302321
  Task:    28 matrix size:     266390
  Task:    29 matrix size:     449411
  Task:    30 matrix size:     505308
  Task:    31 matrix size:     211126
  Task:    32 matrix size:     323278
  Task:    33 matrix size:     121278
  Task:    34 matrix size:     163306
  Task:    35 matrix size:     422097
  Task:    36 matrix size:     562026
  Task:    37 matrix size:     558405
  Task:    38 matrix size:     257251
  Task:    39 matrix size:     257251
  Task:    40 matrix size:     113050
  Task:    41 matrix size:     114481
  Task:    42 matrix size:     582194
  Task:    43 matrix size:     572719
  Task:    44 matrix size:     492219
  Task:    45 matrix size:     414860
  Task:    46 matrix size:     417201
  Task:    47 matrix size:     267439
  Task:    48 matrix size:     151890
  Task:    49 matrix size:     589190
  Task:    50 matrix size:     443660
  Task:    51 matrix size:     277784
  Task:    52 matrix size:     425486
  Task:    53 matrix size:     276254
  Task:    54 matrix size:     263952
  Task:    55 matrix size:     150780
  Integrating Hamiltonian matrix: batch-based integration.
  Time summed over all CPUs for integration: real work      138.550 s, elapsed      264.788 s
  Time get_set_sparse_local_matrix_scalapack:     0.013829 s
  Start compute_balanced_batch_distribution
  Done load balancing, time needed:      0.009 s
  Integrating overlap matrix with loadbalancing
  Time summed over all CPUs for integration: real work       38.606 s, elapsed       43.963 s
  Time get_set_full_local_matrix_scalapack:     0.014656 s

  Updating Kohn-Sham eigenvalues and eigenvectors using ELSI and the ELPA eigensolver.
  Overlap matrix is not singular
  | Lowest and highest eigenvalues :  0.11E+02,  0.83E-04
  Finished singularity check of overlap matrix
  | Time :     0.089 s
  Finished Cholesky decomposition
  | Time :     0.020 s
  Finished transformation to standard eigenproblem
  | Time :     0.015 s
  Starting ELPA eigensolver
  Finished solving standard eigenproblem
  | Time :     0.090 s
  Finished back-transformation of eigenvectors
  | Time :     0.004 s

  Obtaining occupation numbers and chemical potential using ELSI.
  | Chemical potential (Fermi level):    -8.31460317 eV
  Writing Kohn-Sham eigenvalues.

  State    Occupation    Eigenvalue [Ha]    Eigenvalue [eV]
      1       2.00000         -10.175716         -276.89531
      2       2.00000         -10.175715         -276.89531
      3       2.00000         -10.172759         -276.81485
      4       2.00000         -10.172759         -276.81485
      5       2.00000         -10.171640         -276.78440
      6       2.00000         -10.171640         -276.78440
      7       2.00000         -10.171362         -276.77683
      8       2.00000         -10.171362         -276.77683
      9       2.00000         -10.170645         -276.75733
     10       2.00000         -10.170645         -276.75732
     11       2.00000         -10.169657         -276.73043
     12       2.00000         -10.169657         -276.73043
     13       2.00000         -10.169643         -276.73006
     14       2.00000         -10.169643         -276.73006
     15       2.00000         -10.168941         -276.71096
     16       2.00000         -10.168941         -276.71096
     17       2.00000         -10.168665         -276.70346
     18       2.00000         -10.168665         -276.70346
     19       2.00000         -10.168110         -276.68835
     20       2.00000         -10.168110         -276.68834
     21       2.00000         -10.167040         -276.65923
     22       2.00000         -10.167040         -276.65923
     23       2.00000         -10.166579         -276.64669
     24       2.00000         -10.166579         -276.64668
     25       2.00000         -10.166043         -276.63211
     26       2.00000         -10.166043         -276.63211
     27       2.00000         -10.165041         -276.60485
     28       2.00000         -10.165041         -276.60485
     29       2.00000         -10.162540         -276.53678
     30       2.00000         -10.162536         -276.53668
     31       2.00000         -10.162098         -276.52477
     32       2.00000         -10.162095         -276.52468
     33       2.00000          -1.036890          -28.21520
     34       2.00000          -1.031571          -28.07048
     35       2.00000          -0.999654          -27.20198
     36       2.00000          -0.987592          -26.87373
     37       2.00000          -0.967339          -26.32264
     38       2.00000          -0.959054          -26.09719
     39       2.00000          -0.952796          -25.92689
     40       2.00000          -0.930379          -25.31690
     41       2.00000          -0.900819          -24.51252
     42       2.00000          -0.891650          -24.26303
     43       2.00000          -0.890810          -24.24017
     44       2.00000          -0.876748          -23.85753
     45       2.00000          -0.874374          -23.79294
     46       2.00000          -0.872263          -23.73548
     47       2.00000          -0.852484          -23.19728
     48       2.00000          -0.839251          -22.83717
     49       2.00000          -0.799615          -21.75863
     50       2.00000          -0.792208          -21.55706
     51       2.00000          -0.775877          -21.11270
     52       2.00000          -0.770286          -20.96055
     53       2.00000          -0.765451          -20.82899
     54       2.00000          -0.740755          -20.15697
     55       2.00000          -0.736375          -20.03779
     56       2.00000          -0.725695          -19.74717
     57       2.00000          -0.723745          -19.69412
     58       2.00000          -0.693749          -18.87786
     59       2.00000          -0.674970          -18.36686
     60       2.00000          -0.672654          -18.30384
     61       2.00000          -0.667108          -18.15293
     62       2.00000          -0.653517          -17.78310
     63       2.00000          -0.650075          -17.68944
     64       2.00000          -0.644513          -17.53810
     65       2.00000          -0.632382          -17.20798
     66       2.00000          -0.620735          -16.89105
     67       2.00000          -0.618181          -16.82157
     68       2.00000          -0.607717          -16.53681
     69       2.00000          -0.601533          -16.36854
     70       2.00000          -0.594873          -16.18732
     71       2.00000          -0.585802          -15.94049
     72       2.00000          -0.584741          -15.91163
     73       2.00000          -0.582369          -15.84707
     74       2.00000          -0.578014          -15.72857
     75       2.00000          -0.571440          -15.54968
     76       2.00000          -0.571427          -15.54932
     77       2.00000          -0.551324          -15.00229
     78       2.00000          -0.549529          -14.95346
     79       2.00000          -0.542922          -14.77365
     80       2.00000          -0.541562          -14.73666
     81       2.00000          -0.539147          -14.67095
     82       2.00000          -0.538155          -14.64395
     83       2.00000          -0.531740          -14.46938
     84       2.00000          -0.516480          -14.05413
     85       2.00000          -0.511995          -13.93209
     86       2.00000          -0.511382          -13.91542
     87       2.00000          -0.504915          -13.73945
     88       2.00000          -0.499802          -13.60031
     89       2.00000          -0.493760          -13.43589
     90       2.00000          -0.491399          -13.37166
     91       2.00000          -0.488887          -13.30330
     92       2.00000          -0.482024          -13.11653
     93       2.00000          -0.481062          -13.09037
     94       2.00000          -0.463962          -12.62504
     95       2.00000          -0.462644          -12.58917
     96       2.00000          -0.429724          -11.69337
     97       2.00000          -0.424122          -11.54096
     98       2.00000          -0.409545          -11.14429
     99       2.00000          -0.400312          -10.89305
    100       2.00000          -0.395353          -10.75812
    101       2.00000          -0.388904          -10.58262
    102       2.00000          -0.385227          -10.48256
    103       2.00000          -0.365356           -9.94183
    104       2.00000          -0.347822           -9.46473
    105       0.00000          -0.285506           -7.76901
    106       0.00000          -0.238473           -6.48918
    107       0.00000          -0.232242           -6.31962
    108       0.00000          -0.219159           -5.96363
    109       0.00000          -0.217839           -5.92770
    110       0.00000          -0.201067           -5.47131
    111       0.00000          -0.195522           -5.32042
    112       0.00000          -0.177522           -4.83061
    113       0.00000          -0.171776           -4.67426
    114       0.00000          -0.133009           -3.61936
    115       0.00000          -0.117441           -3.19574
    116       0.00000          -0.097727           -2.65929
    117       0.00000          -0.074474           -2.02655
    118       0.00000          -0.068795           -1.87200
    119       0.00000          -0.066862           -1.81941
    120       0.00000          -0.059722           -1.62512
    121       0.00000          -0.052078           -1.41713
    122       0.00000          -0.051148           -1.39182
    123       0.00000          -0.040244           -1.09508
    124       0.00000          -0.039545           -1.07607
    125       0.00000          -0.038897           -1.05843
    126       0.00000          -0.035683           -0.97098
    127       0.00000          -0.032979           -0.89740
    128       0.00000          -0.031721           -0.86318
    129       0.00000          -0.024055           -0.65457
    130       0.00000          -0.022925           -0.62381
    131       0.00000          -0.021564           -0.58679
    132       0.00000          -0.014877           -0.40482
    133       0.00000          -0.005303           -0.14430
    134       0.00000          -0.004331           -0.11785
    135       0.00000          -0.003033           -0.08254
    136       0.00000           0.008009            0.21792
    137       0.00000           0.008846            0.24071
    138       0.00000           0.011563            0.31464
    139       0.00000           0.019028            0.51779
    140       0.00000           0.019597            0.53327
    141       0.00000           0.022391            0.60930
    142       0.00000           0.023051            0.62725
    143       0.00000           0.025003            0.68036
    144       0.00000           0.033440            0.90994
    145       0.00000           0.038616            1.05080
    146       0.00000           0.038839            1.05686
    147       0.00000           0.041149            1.11972
    148       0.00000           0.041419            1.12707
    149       0.00000           0.041629            1.13279
    150       0.00000           0.042545            1.15770
    151       0.00000           0.049056            1.33489
    152       0.00000           0.051871            1.41148
    153       0.00000           0.056320            1.53254
    154       0.00000           0.057477            1.56402
    155       0.00000           0.058857            1.60157
    156       0.00000           0.066661            1.81394
    157       0.00000           0.066946            1.82168
    158       0.00000           0.067675            1.84153
    159       0.00000           0.068244            1.85701
    160       0.00000           0.073619            2.00327
    161       0.00000           0.078549            2.13742
    162       0.00000           0.083708            2.27781
    163       0.00000           0.085780            2.33418
    164       0.00000           0.087609            2.38396
    165       0.00000           0.087797            2.38907
    166       0.00000           0.094154            2.56205
    167       0.00000           0.095167            2.58962
    168       0.00000           0.099480            2.70700
    169       0.00000           0.102888            2.79971
    170       0.00000           0.103674            2.82111
    171       0.00000           0.109169            2.97063
    172       0.00000           0.109700            2.98510
    173       0.00000           0.114700            3.12116
    174       0.00000           0.116309            3.16494
    175       0.00000           0.118312            3.21945
    176       0.00000           0.120550            3.28034
    177       0.00000           0.129970            3.53665
    178       0.00000           0.131690            3.58347
    179       0.00000           0.132353            3.60152
    180       0.00000           0.134714            3.66576
    181       0.00000           0.137593            3.74410
    182       0.00000           0.140126            3.81302
    183       0.00000           0.144843            3.94139
    184       0.00000           0.148482            4.04041
    185       0.00000           0.151007            4.10910
    186       0.00000           0.154571            4.20609
    187       0.00000           0.155333            4.22684
    188       0.00000           0.156445            4.25710
    189       0.00000           0.156721            4.26460
    190       0.00000           0.159267            4.33388
    191       0.00000           0.164552            4.47769
    192       0.00000           0.166586            4.53302
    193       0.00000           0.171121            4.65644
    194       0.00000           0.171324            4.66196
    195       0.00000           0.177383            4.82684
    196       0.00000           0.178710            4.86294
    197       0.00000           0.182767            4.97335
    198       0.00000           0.183603            4.99608
    199       0.00000           0.186418            5.07269
    200       0.00000           0.190354            5.17981
    201       0.00000           0.194033            5.27990
    202       0.00000           0.197639            5.37802
    203       0.00000           0.199592            5.43118
    204       0.00000           0.205931            5.60367
    205       0.00000           0.207445            5.64487
    206       0.00000           0.209948            5.71297
    207       0.00000           0.210322            5.72314
    208       0.00000           0.215194            5.85574
    209       0.00000           0.216033            5.87856
    210       0.00000           0.217894            5.92921
    211       0.00000           0.218216            5.93797
    212       0.00000           0.232570            6.32854
    213       0.00000           0.233204            6.34581
    214       0.00000           0.234090            6.36992
    215       0.00000           0.237535            6.46366
    216       0.00000           0.239200            6.50895
    217       0.00000           0.242652            6.60291
    218       0.00000           0.242789            6.60661
    219       0.00000           0.246595            6.71018
    220       0.00000           0.251178            6.83490
    221       0.00000           0.258070            7.02245
    222       0.00000           0.261729            7.12201
    223       0.00000           0.264204            7.18937
    224       0.00000           0.265445            7.22312

  Highest occupied state (VBM) at     -9.46472835 eV
  | Occupation number:      2.00000000

  Lowest unoccupied state (CBM) at    -7.76901185 eV
  | Occupation number:      0.00000000

  Overall HOMO-LUMO gap:      1.69571650 eV.
  Calculating total energy contributions from superposition of free atom densities.

  Total energy components:
  | Sum of eigenvalues            :        -744.28297559 Ha      -20252.97022556 eV
  | XC energy correction          :        -175.51399068 Ha       -4775.97868563 eV
  | XC potential correction       :         225.44426257 Ha        6134.65051215 eV
  | Free-atom electrostatic energy:        -535.68294847 Ha      -14576.67468088 eV
  | Hartree energy correction     :           0.00000000 Ha           0.00000000 eV
  | Entropy correction            :           0.00000000 Ha           0.00000000 eV
  | ---------------------------
  | Total energy                  :       -1230.03565217 Ha      -33470.97307992 eV
  | Total energy, T -> 0          :       -1230.03565217 Ha      -33470.97307992 eV  <-- do not rely on this value for anything but (periodic) metals
  | Electronic free energy        :       -1230.03565217 Ha      -33470.97307992 eV

  Derived energy quantities:
  | Kinetic energy                :        1219.64094356 Ha       33188.11866716 eV
  | Electrostatic energy          :       -2274.16260505 Ha      -61883.11306145 eV
  | Energy correction for multipole
  | error in Hartree potential    :           0.00000000 Ha           0.00000000 eV
  | Sum of eigenvalues per atom                           :        -421.93687970 eV
  | Total energy (T->0) per atom                          :        -697.31193916 eV  <-- do not rely on this value for anything but (periodic) metals
  | Electronic free energy per atom                       :        -697.31193916 eV
  Initialize hartree_potential_storage
  Max. number of atoms included in rho_multipole:           48

  End scf initialization - timings             :  max(cpu_time)    wall_clock(cpu1)
  | Time for scf. initialization               :        7.152 s           7.207 s
  | Boundary condition initialization          :        0.001 s           0.003 s
  | Integration                                :        5.565 s           5.571 s
  | Solution of K.-S. eqns.                    :        0.235 s           0.252 s
  | Grid partitioning                          :        0.651 s           0.655 s
  | Preloading free-atom quantities on grid    :        0.013 s           0.016 s
  | Free-atom superposition energy             :        0.060 s           0.061 s
  | Total energy evaluation                    :        0.001 s           0.004 s

  Partial memory accounting:
  | Current value for overall tracked memory usage on task 0  :           4.300 MB
  | Peak value for overall tracked memory usage on task 0     :          25.159 MB after allocating zora_vector2
  | Largest tracked array allocation on task 0 so far         :           6.610 MB  when allocating hamiltonian_shell
  Note:  These values currently only include a subset of arrays which are explicitly tracked.
  The "true" memory usage will be greater.
------------------------------------------------------------

------------------------------------------------------------
          Begin self-consistency iteration #    1

  Date     :  20210620, Time     :  173831.403
------------------------------------------------------------
  Evaluating new KS density.
  Integration grid: deviation in total charge (<rho> - N_e) =   0.000000E+00
  Pulay mixing of updated and previous charge densities.

  Evaluating partitioned Hartree potential by multipole expansion.
  | Analytical far-field extrapolation by fixed multipoles:
  | Hartree multipole sum: apparent total charge =  -0.297383E-03
  Summing up the Hartree potential with load balancing.
  Time summed over all CPUs for potential: real work       24.591 s, elapsed       39.618 s
  | RMS charge density error from multipole expansion :   0.136135E-01

  Start compute_balanced_batch_distribution
  Done load balancing, time needed:      0.007 s
  Integrating Hamiltonian matrix: batch-based integration with load balancing
  Time summed over all CPUs for integration: real work      151.439 s, elapsed      169.427 s
  Time get_set_full_local_matrix_scalapack:     0.015532 s
  Start compute_balanced_batch_distribution
  Done load balancing, time needed:      0.007 s

  Updating Kohn-Sham eigenvalues and eigenvectors using ELSI and the ELPA eigensolver.
  Finished transformation to standard eigenproblem
  | Time :     0.015 s
  Starting ELPA eigensolver
  Finished solving standard eigenproblem
  | Time :     0.090 s
  Finished back-transformation of eigenvectors
  | Time :     0.004 s

  Obtaining occupation numbers and chemical potential using ELSI.
  | Chemical potential (Fermi level):    -5.87115606 eV
  Writing Kohn-Sham eigenvalues.

  State    Occupation    Eigenvalue [Ha]    Eigenvalue [eV]
      1       2.00000          -9.994831         -271.97319
      2       2.00000          -9.994830         -271.97316
      3       2.00000          -9.994393         -271.96128
      4       2.00000          -9.994392         -271.96124
      5       2.00000          -9.977882         -271.51198
      6       2.00000          -9.977882         -271.51197
      7       2.00000          -9.969593         -271.28643
      8       2.00000          -9.969593         -271.28642
      9       2.00000          -9.968147         -271.24708
     10       2.00000          -9.968147         -271.24708
     11       2.00000          -9.966986         -271.21548
     12       2.00000          -9.966986         -271.21548
     13       2.00000          -9.966390         -271.19926
     14       2.00000          -9.966389         -271.19926
     15       2.00000          -9.965992         -271.18845
     16       2.00000          -9.965992         -271.18845
     17       2.00000          -9.965535         -271.17602
     18       2.00000          -9.965535         -271.17602
     19       2.00000          -9.964843         -271.15717
     20       2.00000          -9.964843         -271.15716
     21       2.00000          -9.964508         -271.14806
     22       2.00000          -9.964508         -271.14806
     23       2.00000          -9.947399         -270.68251
     24       2.00000          -9.947399         -270.68250
     25       2.00000          -9.946902         -270.66898
     26       2.00000          -9.946902         -270.66897
     27       2.00000          -9.945633         -270.63444
     28       2.00000          -9.945633         -270.63444
     29       2.00000          -9.941202         -270.51387
     30       2.00000          -9.941202         -270.51387
     31       2.00000          -9.939880         -270.47790
     32       2.00000          -9.939880         -270.47790
     33       2.00000          -0.889766          -24.21175
     34       2.00000          -0.877606          -23.88088
     35       2.00000          -0.851916          -23.18182
     36       2.00000          -0.830706          -22.60466
     37       2.00000          -0.830365          -22.59539
     38       2.00000          -0.809854          -22.03724
     39       2.00000          -0.805761          -21.92589
     40       2.00000          -0.779206          -21.20327
     41       2.00000          -0.760546          -20.69551
     42       2.00000          -0.752670          -20.48119
     43       2.00000          -0.741873          -20.18740
     44       2.00000          -0.734764          -19.99395
     45       2.00000          -0.729561          -19.85235
     46       2.00000          -0.722148          -19.65065
     47       2.00000          -0.698799          -19.01528
     48       2.00000          -0.695658          -18.92982
     49       2.00000          -0.656717          -17.87019
     50       2.00000          -0.655585          -17.83938
     51       2.00000          -0.632265          -17.20481
     52       2.00000          -0.632044          -17.19881
     53       2.00000          -0.628733          -17.10869
     54       2.00000          -0.599338          -16.30881
     55       2.00000          -0.592835          -16.13187
     56       2.00000          -0.584058          -15.89302
     57       2.00000          -0.582490          -15.85035
     58       2.00000          -0.553140          -15.05170
     59       2.00000          -0.550118          -14.96946
     60       2.00000          -0.534740          -14.55103
     61       2.00000          -0.533627          -14.52072
     62       2.00000          -0.519773          -14.14375
     63       2.00000          -0.515449          -14.02608
     64       2.00000          -0.509657          -13.86848
     65       2.00000          -0.486443          -13.23678
     66       2.00000          -0.484235          -13.17670
     67       2.00000          -0.480359          -13.07124
     68       2.00000          -0.469293          -12.77012
     69       2.00000          -0.458635          -12.48011
     70       2.00000          -0.455418          -12.39255
     71       2.00000          -0.452149          -12.30360
     72       2.00000          -0.450015          -12.24554
     73       2.00000          -0.442199          -12.03285
     74       2.00000          -0.439990          -11.97274
     75       2.00000          -0.434589          -11.82578
     76       2.00000          -0.434245          -11.81641
     77       2.00000          -0.433347          -11.79197
     78       2.00000          -0.426308          -11.60044
     79       2.00000          -0.416601          -11.33628
     80       2.00000          -0.416482          -11.33304
     81       2.00000          -0.411513          -11.19783
     82       2.00000          -0.409783          -11.15076
     83       2.00000          -0.391050          -10.64101
     84       2.00000          -0.390270          -10.61979
     85       2.00000          -0.381969          -10.39390
     86       2.00000          -0.372111          -10.12565
     87       2.00000          -0.371191          -10.10062
     88       2.00000          -0.366713           -9.97877
     89       2.00000          -0.361875           -9.84711
     90       2.00000          -0.359992           -9.79588
     91       2.00000          -0.353524           -9.61988
     92       2.00000          -0.348352           -9.47915
     93       2.00000          -0.346466           -9.42782
     94       2.00000          -0.344621           -9.37762
     95       2.00000          -0.337730           -9.19011
     96       2.00000          -0.306265           -8.33388
     97       2.00000          -0.304376           -8.28250
     98       2.00000          -0.283292           -7.70878
     99       2.00000          -0.282530           -7.68804
    100       2.00000          -0.275342           -7.49244
    101       2.00000          -0.265435           -7.22285
    102       2.00000          -0.254107           -6.91460
    103       2.00000          -0.236075           -6.42392
    104       2.00000          -0.226474           -6.16267
    105       0.00000          -0.167902           -4.56883
    106       0.00000          -0.118955           -3.23693
    107       0.00000          -0.111797           -3.04216
    108       0.00000          -0.101247           -2.75508
    109       0.00000          -0.097166           -2.64402
    110       0.00000          -0.073892           -2.01071
    111       0.00000          -0.073408           -1.99752
    112       0.00000          -0.053434           -1.45401
    113       0.00000          -0.047782           -1.30022
    114       0.00000          -0.030383           -0.82676
    115       0.00000          -0.025292           -0.68822
    116       0.00000          -0.023989           -0.65277
    117       0.00000          -0.020505           -0.55798
    118       0.00000          -0.015251           -0.41500
    119       0.00000          -0.012773           -0.34757
    120       0.00000          -0.004924           -0.13400
    121       0.00000          -0.001482           -0.04032
    122       0.00000           0.007014            0.19085
    123       0.00000           0.008867            0.24128
    124       0.00000           0.014643            0.39847
    125       0.00000           0.018043            0.49097
    126       0.00000           0.025516            0.69433
    127       0.00000           0.030720            0.83594
    128       0.00000           0.049771            1.35434
    129       0.00000           0.049999            1.36053
    130       0.00000           0.055877            1.52049
    131       0.00000           0.063024            1.71496
    132       0.00000           0.070068            1.90664
    133       0.00000           0.072075            1.96126
    134       0.00000           0.077586            2.11121
    135       0.00000           0.083190            2.26372
    136       0.00000           0.084850            2.30889
    137       0.00000           0.086088            2.34259
    138       0.00000           0.089558            2.43699
    139       0.00000           0.090883            2.47305
    140       0.00000           0.093098            2.53333
    141       0.00000           0.094807            2.57983
    142       0.00000           0.096779            2.63350
    143       0.00000           0.098628            2.68381
    144       0.00000           0.106441            2.89641
    145       0.00000           0.107715            2.93107
    146       0.00000           0.108982            2.96556
    147       0.00000           0.111838            3.04327
    148       0.00000           0.112266            3.05491
    149       0.00000           0.115170            3.13394
    150       0.00000           0.118007            3.21113
    151       0.00000           0.124301            3.38241
    152       0.00000           0.125232            3.40773
    153       0.00000           0.125822            3.42378
    154       0.00000           0.127877            3.47972
    155       0.00000           0.132788            3.61335
    156       0.00000           0.134172            3.65102
    157       0.00000           0.134551            3.66132
    158       0.00000           0.137322            3.73673
    159       0.00000           0.141130            3.84034
    160       0.00000           0.145890            3.96987
    161       0.00000           0.147289            4.00793
    162       0.00000           0.148143            4.03116
    163       0.00000           0.155310            4.22621
    164       0.00000           0.158001            4.29944
    165       0.00000           0.159163            4.33104
    166       0.00000           0.160723            4.37350
    167       0.00000           0.160955            4.37981
    168       0.00000           0.168771            4.59250
    169       0.00000           0.172020            4.68090
    170       0.00000           0.172523            4.69460
    171       0.00000           0.174487            4.74803
    172       0.00000           0.178522            4.85784
    173       0.00000           0.188305            5.12404
    174       0.00000           0.188720            5.13534
    175       0.00000           0.191180            5.20226
    176       0.00000           0.193452            5.26409
    177       0.00000           0.195302            5.31445
    178       0.00000           0.196458            5.34590
    179       0.00000           0.197159            5.36496
    180       0.00000           0.203251            5.53074
    181       0.00000           0.206934            5.63097
    182       0.00000           0.207851            5.65591
    183       0.00000           0.210411            5.72557
    184       0.00000           0.211199            5.74703
    185       0.00000           0.215679            5.86894
    186       0.00000           0.227470            6.18976
    187       0.00000           0.228584            6.22010
    188       0.00000           0.229301            6.23959
    189       0.00000           0.233473            6.35314
    190       0.00000           0.234423            6.37897
    191       0.00000           0.235360            6.40447
    192       0.00000           0.238821            6.49865
    193       0.00000           0.241102            6.56072
    194       0.00000           0.242779            6.60636
    195       0.00000           0.247772            6.74222
    196       0.00000           0.254888            6.93584
    197       0.00000           0.258848            7.04360
    198       0.00000           0.259495            7.06123
    199       0.00000           0.261260            7.10924
    200       0.00000           0.262038            7.13041
    201       0.00000           0.263985            7.18340
    202       0.00000           0.269711            7.33920
    203       0.00000           0.270051            7.34845
    204       0.00000           0.273325            7.43754
    205       0.00000           0.280635            7.63647
    206       0.00000           0.285048            7.75655
    207       0.00000           0.292891            7.96997
    208       0.00000           0.294483            8.01329
    209       0.00000           0.295590            8.04341
    210       0.00000           0.297014            8.08217
    211       0.00000           0.299968            8.16255
    212       0.00000           0.301235            8.19702
    213       0.00000           0.305302            8.30768
    214       0.00000           0.305847            8.32253
    215       0.00000           0.310977            8.46211
    216       0.00000           0.314162            8.54878
    217       0.00000           0.321666            8.75299
    218       0.00000           0.324200            8.82193
    219       0.00000           0.328229            8.93155
    220       0.00000           0.333262            9.06852
    221       0.00000           0.339201            9.23013
    222       0.00000           0.339255            9.23159
    223       0.00000           0.343161            9.33790
    224       0.00000           0.349970            9.52318

  Highest occupied state (VBM) at     -6.16267391 eV
[...]
     54       2.00000          -0.541618          -14.73819
     55       2.00000          -0.535210          -14.56381
     56       2.00000          -0.525551          -14.30097
     57       2.00000          -0.524516          -14.27281
     58       2.00000          -0.496612          -13.51349
     59       2.00000          -0.487328          -13.26087
     60       2.00000          -0.473563          -12.88631
     61       2.00000          -0.472837          -12.86656
     62       2.00000          -0.457725          -12.45534
     63       2.00000          -0.453396          -12.33754
     64       2.00000          -0.452746          -12.31985
     65       2.00000          -0.426112          -11.59511
     66       2.00000          -0.423598          -11.52669
     67       2.00000          -0.423436          -11.52229
     68       2.00000          -0.407307          -11.08340
     69       2.00000          -0.399174          -10.86207
     70       2.00000          -0.393700          -10.71312
     71       2.00000          -0.393184          -10.69907
     72       2.00000          -0.391583          -10.65551
     73       2.00000          -0.387317          -10.53944
     74       2.00000          -0.382834          -10.41743
     75       2.00000          -0.380376          -10.35055
     76       2.00000          -0.379742          -10.33329
     77       2.00000          -0.372870          -10.14631
     78       2.00000          -0.372212          -10.12839
     79       2.00000          -0.366087           -9.96174
     80       2.00000          -0.352280           -9.58601
     81       2.00000          -0.351151           -9.55532
     82       2.00000          -0.350650           -9.54166
     83       2.00000          -0.346595           -9.43132
     84       2.00000          -0.332204           -9.03972
     85       2.00000          -0.329241           -8.95911
     86       2.00000          -0.326437           -8.88279
     87       2.00000          -0.319923           -8.70554
     88       2.00000          -0.311024           -8.46339
     89       2.00000          -0.304278           -8.27983
     90       2.00000          -0.301225           -8.19675
     91       2.00000          -0.300230           -8.16968
     92       2.00000          -0.299252           -8.14306
     93       2.00000          -0.294235           -8.00654
     94       2.00000          -0.286851           -7.80562
     95       2.00000          -0.280208           -7.62483
     96       2.00000          -0.266167           -7.24276
     97       2.00000          -0.262893           -7.15367
     98       2.00000          -0.243818           -6.63462
     99       2.00000          -0.239521           -6.51770
    100       2.00000          -0.232203           -6.31856
    101       2.00000          -0.224157           -6.09962
    102       2.00000          -0.216034           -5.87859
    103       2.00000          -0.195720           -5.32581
    104       2.00000          -0.182837           -4.97524
    105       0.00000          -0.124473           -3.38709
    106       0.00000          -0.075014           -2.04123
    107       0.00000          -0.070182           -1.90974
    108       0.00000          -0.058432           -1.59002
    109       0.00000          -0.055250           -1.50342
    110       0.00000          -0.031626           -0.86058
    111       0.00000          -0.031000           -0.84355
    112       0.00000          -0.010954           -0.29808
    113       0.00000          -0.007365           -0.20041
    114       0.00000          -0.006300           -0.17144
    115       0.00000          -0.003096           -0.08425
    116       0.00000          -0.001654           -0.04502
    117       0.00000           0.002688            0.07315
    118       0.00000           0.008339            0.22691
    119       0.00000           0.017118            0.46579
    120       0.00000           0.020394            0.55496
    121       0.00000           0.027139            0.73849
    122       0.00000           0.030888            0.84052
    123       0.00000           0.036025            0.98030
    124       0.00000           0.048017            1.30661
    125       0.00000           0.051100            1.39050
    126       0.00000           0.053741            1.46238
    127       0.00000           0.065131            1.77230
    128       0.00000           0.071891            1.95626
    129       0.00000           0.073849            2.00954
    130       0.00000           0.079643            2.16719
    131       0.00000           0.083186            2.26361
    132       0.00000           0.095364            2.59499
    133       0.00000           0.097705            2.65869
    134       0.00000           0.101000            2.74835
    135       0.00000           0.105451            2.86945
    136       0.00000           0.108133            2.94245
    137       0.00000           0.112741            3.06783
    138       0.00000           0.117417            3.19509
    139       0.00000           0.123510            3.36087
    140       0.00000           0.124803            3.39607
    141       0.00000           0.127610            3.47244
    142       0.00000           0.130437            3.54938
    143       0.00000           0.132591            3.60798
    144       0.00000           0.135699            3.69256
    145       0.00000           0.136739            3.72087
    146       0.00000           0.137870            3.75163
    147       0.00000           0.140602            3.82598
    148       0.00000           0.143681            3.90975
    149       0.00000           0.147778            4.02123
    150       0.00000           0.149692            4.07334
    151       0.00000           0.150025            4.08239
    152       0.00000           0.158782            4.32068
    153       0.00000           0.158875            4.32321
    154       0.00000           0.162370            4.41831
    155       0.00000           0.163458            4.44791
    156       0.00000           0.166135            4.52078
    157       0.00000           0.166896            4.54148
    158       0.00000           0.171845            4.67615
    159       0.00000           0.172162            4.68478
    160       0.00000           0.173654            4.72537
    161       0.00000           0.178382            4.85401
    162       0.00000           0.179596            4.88706
    163       0.00000           0.186268            5.06861
    164       0.00000           0.187320            5.09722
    165       0.00000           0.191930            5.22269
    166       0.00000           0.194953            5.30495
    167       0.00000           0.197201            5.36611
    168       0.00000           0.198598            5.40414
    169       0.00000           0.204099            5.55382
    170       0.00000           0.206663            5.62359
    171       0.00000           0.206679            5.62401
    172       0.00000           0.208910            5.68473
    173       0.00000           0.212533            5.78331
    174       0.00000           0.213252            5.80289
    175       0.00000           0.226355            6.15942
    176       0.00000           0.226363            6.15964
    177       0.00000           0.230096            6.26122
    178       0.00000           0.231119            6.28906
    179       0.00000           0.231483            6.29898
    180       0.00000           0.232210            6.31877
    181       0.00000           0.236741            6.44206
    182       0.00000           0.238700            6.49537
    183       0.00000           0.241395            6.56870
    184       0.00000           0.247059            6.72283
    185       0.00000           0.252058            6.85885
    186       0.00000           0.252526            6.87157
    187       0.00000           0.259613            7.06443
    188       0.00000           0.262153            7.13355
    189       0.00000           0.266064            7.23996
    190       0.00000           0.268282            7.30033
    191       0.00000           0.269548            7.33478
    192       0.00000           0.270765            7.36790
    193       0.00000           0.275455            7.49552
    194       0.00000           0.277094            7.54011
    195       0.00000           0.277396            7.54834
    196       0.00000           0.279240            7.59851
    197       0.00000           0.282895            7.69798
    198       0.00000           0.290101            7.89406
    199       0.00000           0.294653            8.01791
    200       0.00000           0.294831            8.02276
    201       0.00000           0.298921            8.13404
    202       0.00000           0.301509            8.20449
    203       0.00000           0.301756            8.21119
    204       0.00000           0.311104            8.46556
    205       0.00000           0.313994            8.54422
    206       0.00000           0.319163            8.68486
    207       0.00000           0.320917            8.73259
    208       0.00000           0.327400            8.90901
    209       0.00000           0.328238            8.93182
    210       0.00000           0.329111            8.95558
    211       0.00000           0.331890            9.03119
    212       0.00000           0.335951            9.14170
    213       0.00000           0.336100            9.14575
    214       0.00000           0.338438            9.20937
    215       0.00000           0.342226            9.31243
    216       0.00000           0.350341            9.53325
    217       0.00000           0.351463            9.56379
    218       0.00000           0.360770            9.81705
    219       0.00000           0.367554           10.00164
    220       0.00000           0.367613           10.00327
    221       0.00000           0.369795           10.06264
    222       0.00000           0.372201           10.12811
    223       0.00000           0.383427           10.43358
    224       0.00000           0.390746           10.63273

  Highest occupied state (VBM) at     -4.97524106 eV
  | Occupation number:      2.00000000

  Lowest unoccupied state (CBM) at    -3.38709429 eV
  | Occupation number:      0.00000000

  Overall HOMO-LUMO gap:      1.58814677 eV.

  Total energy components:
  | Sum of eigenvalues            :        -699.86086275 Ha      -19044.18303281 eV
  | XC energy correction          :        -178.57652373 Ha       -4859.31444982 eV
  | XC potential correction       :         229.40659814 Ha        6242.47114883 eV
  | Free-atom electrostatic energy:        -535.68294847 Ha      -14576.67468088 eV
  | Hartree energy correction     :         -43.88665175 Ha       -1194.21655516 eV
  | Entropy correction            :           0.00000000 Ha           0.00000000 eV
  | ---------------------------
  | Total energy                  :       -1228.60038856 Ha      -33431.91756985 eV
  | Total energy, T -> 0          :       -1228.60038856 Ha      -33431.91756985 eV  <-- do not rely on this value for anything but (periodic) metals
  | Electronic free energy        :       -1228.60038856 Ha      -33431.91756985 eV

  Derived energy quantities:
  | Kinetic energy                :        1225.41549469 Ha       33345.25219823 eV
  | Electrostatic energy          :       -2275.43935952 Ha      -61917.85531825 eV
  | Energy correction for multipole
  | error in Hartree potential    :          -0.14114525 Ha          -3.84075771 eV
  | Sum of eigenvalues per atom                           :        -396.75381318 eV
  | Total energy (T->0) per atom                          :        -696.49828271 eV  <-- do not rely on this value for anything but (periodic) metals
  | Electronic free energy per atom                       :        -696.49828271 eV
  End evaluation of scaled ZORA corrections.
  | Time for scaled ZORA corrections           :        5.186 s           5.190 s
------------------------------------------------------------

  Energy and forces in a compact form:
  | Total energy uncorrected      :         -0.334319175698452E+05 eV
  | Total energy corrected        :         -0.334319175698452E+05 eV  <-- do not rely on this value for anything but (periodic) metals
  | Electronic free energy        :         -0.334319175698452E+05 eV

  ------------------------------------ 
  Start decomposition of the XC Energy 
  ------------------------------------ 
  X and C from original XC functional choice 
  Hartree-Fock Energy :          0.000000000 Ha              0.000000000 eV
  X Energy            :       -171.560526797 Ha          -4668.399459699 eV
  C Energy            :         -7.015996930 Ha           -190.914990124 eV
  Total XC Energy     :       -178.576523728 Ha          -4859.314449823 eV
  ------------------------------------ 
  LDA X and C from self-consistent density 
  X Energy LDA        :       -155.415528047 Ha          -4229.071690966 eV
  C Energy LDA        :        -13.488264170 Ha           -367.034342555 eV
  ------------------------------------ 
  End decomposition of the XC Energy 
  ------------------------------------ 

------------------------------------------------------------

------------------------------------------------------------------------------
  Final output of selected total energy values:

  The following output summarizes some interesting total energy values
  at the end of a run (AFTER all relaxation, molecular dynamics, etc.).

  | Total energy of the DFT / Hartree-Fock s.c.f. calculation      :         -33431.917569845 eV
  | Final zero-broadening corrected energy (caution - metals only) :         -33431.917569845 eV
  | For reference only, the value of 1 Hartree used in FHI-aims is :             27.211384500 eV

  Before relying on these values, please be sure to understand exactly which
  total energy value is referred to by a given number. Different objects may
  all carry the same name 'total energy'. Definitions:

  Total energy of the DFT / Hartree-Fock s.c.f. calculation:
  | Note that this energy does not include ANY quantities calculated after the
  | s.c.f. cycle, in particular not ANY RPA, MP2, etc. many-body perturbation terms.
  | Scalar relativistic effects have been included in the 'scaled ZORA' approximation.

  Final zero-broadening corrected energy:
  | For metallic systems only, a broadening of the occupation numbers at the Fermi
  | level can be extrapolated back to zero broadening by an electron-gas inspired
  | formula. For all systems that are not real metals, this value can be
  | meaningless and should be avoided.

------------------------------------------------------------------------------
  Methods described in the following list of references were used in this FHI-aims run.
  If you publish the results, please make sure to cite these reference if they apply.
  FHI-aims is an academic code, and for our developers (often, Ph.D. students
  and postdocs), scientific credit in the community is essential.
  Thank you for helping us!

  For any use of FHI-aims, please cite:

    Volker Blum, Ralf Gehrke, Felix Hanke, Paula Havu, Ville Havu,
    Xinguo Ren, Karsten Reuter, and Matthias Scheffler
    'Ab initio molecular simulations with numeric atom-centered orbitals'
    Computer Physics Communications 180, 2175-2196 (2009)
    http://dx.doi.org/10.1016/j.cpc.2009.06.022


  The scalable eigensolver library ELPA was used in your run.
  ELPA is essential especially for large systems on hundreds or thousands of CPUs.
  For ELPA, please cite:

    Andreas Marek, Volker Blum, Rainer Johanni, Ville Havu, Bruno Lang,
    Thomas Auckenthaler, Alexander Heinecke, Hans-Joachim Bungartz, and Hermann Lederer,
    'The ELPA Library - Scalable Parallel Eigenvalue Solutions
    for Electronic Structure Theory and Computational Science'
    The Journal of Physics: Condensed Matter 26, 213201 (2014).
    http://dx.doi.org/10.1088/0953-8984/26/21/213201


  The ELSI infrastructure was used in your run to solve the Kohn-Sham electronic structure.
  Please check out http://elsi-interchange.org to learn more.
  If scalability is important for your project, please acknowledge ELSI by citing:

    V. W-z. Yu, F. Corsetti, A. Garcia, W. P. Huhn, M. Jacquelin, W. Jia,
    B. Lange, L. Lin, J. Lu, W. Mi, A. Seifitokaldani, A. Vazquez-Mayagoitia,
    C. Yang, H. Yang, and V. Blum
    'ELSI: A unified software interface for Kohn-Sham electronic structure solvers'
    Computer Physics Communications 222, 267-285 (2018).
    http://dx.doi.org/10.1016/j.cpc.2017.09.007


  For the real-space grid partitioning and parallelization used in this calculation, please cite:

    Ville Havu, Volker Blum, Paula Havu, and Matthias Scheffler,
    'Efficient O(N) integration for all-electron electronic structure calculation'
    'using numerically tabulated basis functions'
    Journal of Computational Physics 228, 8367-8379 (2009).
    http://dx.doi.org/10.1016/j.jcp.2009.08.008

  Of course, there are many other important community references, e.g., those cited in the
  above references. Our list is limited to references that describe implementations in the
  FHI-aims code. The reason is purely practical (length of this list) - please credit others as well.

------------------------------------------------------------
          Leaving FHI-aims.
          Date     :  20210620, Time     :  174009.608

          Computational steps:
          | Number of self-consistency cycles          :           18
          | Number of SCF (re)initializations          :            1

          Detailed time accounting                     :  max(cpu_time)    wall_clock(cpu1)
          | Total time                                 :      104.797 s         105.783 s
          | Preparation time                           :        0.195 s           0.210 s
          | Boundary condition initalization           :        0.001 s           0.003 s
          | Grid partitioning                          :        0.651 s           0.655 s
          | Preloading free-atom quantities on grid    :        0.013 s           0.016 s
          | Free-atom superposition energy             :        0.060 s           0.061 s
          | Total time for integrations                :       56.626 s          56.634 s
          | Total time for solution of K.-S. equations :        2.920 s           2.943 s
          | Total time for density update              :       28.780 s          22.387 s
          | Total time for mixing                      :        0.141 s           0.145 s
          | Total time for Hartree multipole update    :        0.164 s           0.170 s
          | Total time for Hartree multipole sum       :        9.172 s           9.176 s
          | Total time for total energy evaluation     :        0.011 s           0.032 s
          | Total time for scaled ZORA corrections     :        5.186 s           5.190 s

          Partial memory accounting:
          | Residual value for overall tracked memory usage across tasks :     0.000000 MB (should be 0.000000 MB)
          | Peak values for overall tracked memory usage (after allocating zora_vector2):
          |   Minimum:       24.961 MB (on task 41)
          |   Maximum:       30.942 MB (on task  7)
          |   Average:       28.011 MB
          | Largest tracked array allocation (hamiltonian_shell):
          |   Minimum:        6.610 MB (on task  1)
          |   Maximum:        6.610 MB (on task  1)
          |   Average:        6.610 MB
          Note:  These values currently only include a subset of arrays which are explicitly tracked.
          The "true" memory usage will be greater.

          Have a nice day.
------------------------------------------------------------
