  MPI-parallelism will be employed.
------------------------------------------------------------
          Invoking FHI-aims ...
          Version 180607
          Git rev. (modified): 6724847 Fix JSON memory corruption in scf_solver
          Compiled on 2018/06/27 at 16:00:31 on host coe.psc.edu.

          When using FHI-aims, please cite the following reference:

          Volker Blum, Ralf Gehrke, Felix Hanke, Paula Havu,
          Ville Havu, Xinguo Ren, Karsten Reuter, and Matthias Scheffler,
          'Ab Initio Molecular Simulations with Numeric Atom-Centered Orbitals',
          Computer Physics Communications 180, 2175-2196 (2009)

          For any questions about FHI-aims, please visit the aimsclub website
          with its forums and wiki. Contributions to both the forums and the
          wiki are warmly encouraged - they are for you, and everyone is welcome there.

------------------------------------------------------------



  Date     :  20210620, Time     :  173552.713
  Time zero on CPU 1             :   0.284645000000000E+00  s.
  Internal wall clock time zero  :           393442552.713  s.

  FHI-aims created a unique identifier for this run for later identification
  aims_uuid : 2E23ED74-21D1-46DC-AB4B-E42D59B7889A

  Using       56 parallel tasks.
  Task        0 on host d024 reporting.
  Task        1 on host d024 reporting.
  Task        2 on host d024 reporting.
  Task        3 on host d024 reporting.
  Task        4 on host d024 reporting.
  Task        5 on host d024 reporting.
  Task        6 on host d024 reporting.
  Task        7 on host d024 reporting.
  Task        8 on host d024 reporting.
  Task        9 on host d024 reporting.
  Task       10 on host d024 reporting.
  Task       11 on host d024 reporting.
  Task       12 on host d024 reporting.
  Task       13 on host d024 reporting.
  Task       14 on host d024 reporting.
  Task       15 on host d024 reporting.
  Task       16 on host d024 reporting.
  Task       17 on host d024 reporting.
  Task       18 on host d024 reporting.
  Task       19 on host d024 reporting.
  Task       20 on host d024 reporting.
  Task       21 on host d024 reporting.
  Task       22 on host d024 reporting.
  Task       23 on host d024 reporting.
  Task       24 on host d024 reporting.
  Task       25 on host d024 reporting.
  Task       26 on host d024 reporting.
  Task       27 on host d024 reporting.
  Task       28 on host d024 reporting.
  Task       29 on host d024 reporting.
  Task       30 on host d024 reporting.
  Task       31 on host d024 reporting.
  Task       32 on host d024 reporting.
  Task       33 on host d024 reporting.
  Task       34 on host d024 reporting.
  Task       35 on host d024 reporting.
  Task       36 on host d024 reporting.
  Task       37 on host d024 reporting.
  Task       38 on host d024 reporting.
  Task       39 on host d024 reporting.
  Task       40 on host d024 reporting.
  Task       41 on host d024 reporting.
  Task       42 on host d024 reporting.
  Task       43 on host d024 reporting.
  Task       44 on host d024 reporting.
  Task       45 on host d024 reporting.
  Task       46 on host d024 reporting.
  Task       47 on host d024 reporting.
  Task       48 on host d024 reporting.
  Task       49 on host d024 reporting.
  Task       50 on host d024 reporting.
  Task       51 on host d024 reporting.
  Task       52 on host d024 reporting.
  Task       53 on host d024 reporting.
  Task       54 on host d024 reporting.
  Task       55 on host d024 reporting.

  Performing system and environment tests:
  *** Environment variable OMP_NUM_THREADS is not set
  *** For performance reasons you might want to set it to 1
  | Stacksize not measured: no C compiler
  | Checking for scalapack...
  | Testing pdtran()...
  | All pdtran() tests passed.

  Obtaining array dimensions for all initial allocations:
  
  -----------------------------------------------------------------------
  Parsing control.in (first pass over file, find array dimensions only).
  The contents of control.in will be repeated verbatim below
  unless switched off by setting 'verbatim_writeout .false.' .
  in the first line of control.in .
  -----------------------------------------------------------------------
  
  #===============================================================================
  # FHI-aims file: ./Runs/es/control.in
  # Created using the Atomic Simulation Environment (ASE)
  # Mon Jan 13 16:04:38 2020
  #===============================================================================
  xc                                 pbe
  relativistic                       zora scalar 1e-12
  occupation_type                    gaussian 0.0001
  load_balancing                     .true.
  KS_method                          scalapack_fast
  mixer                              pulay
  n_max_pulay                        5
  charge_mix_param                   0.4
  sc_accuracy_etot                   1e-6
  sc_accuracy_eev                    1e-4
  sc_accuracy_rho                    1e-6
  sc_iter_limit                      100
  prodbas_threshold                  1e-4
  basis_threshold                    1e-5
  override_illconditioning           .true.
  use_logsbt                         .true.
  spin                               none
  charge                             0
  #===============================================================================
  
  ################################################################################
  #
  #  FHI-aims code project
  # Volker Blum, Fritz Haber Institute Berlin, 2009
  #
  #  Suggested "tight" defaults for H atom (to be pasted into control.in file)
  #
  ################################################################################
    species        H
  #     global species definitions
      nucleus             1
      mass                1.00794
  #
      l_hartree           6
  #
      cut_pot             4.0  2.0  1.0
      basis_dep_cutoff    1e-4
  #
      radial_base         24 7.0
      radial_multiplier   2
      angular_grids       specified
        division   0.1930   50
        division   0.3175  110
        division   0.4293  194
        division   0.5066  302
        division   0.5626  434
  #      division   0.5922  590
  #      division   0.6227  974
  #      division   0.6868 1202
  #      outer_grid  770
        outer_grid  434
  ################################################################################
  #
  #  Definition of "minimal" basis
  #
  ################################################################################
  #     valence basis states
      valence      1  s   1.
  #     ion occupancy
      ion_occ      1  s   0.5
  ################################################################################
  #
  #  Suggested additional basis functions. For production calculations,
  #  uncomment them one after another (the most important basis functions are
  #  listed first).
  #
  #  Basis constructed for dimers: 0.5 A, 0.7 A, 1.0 A, 1.5 A, 2.5 A
  #
  ################################################################################
  #  "First tier" - improvements: -1014.90 meV to -62.69 meV
       hydro 2 s 2.1
       hydro 2 p 3.5
  #  "Second tier" - improvements: -12.89 meV to -1.83 meV
       hydro 1 s 0.85
       hydro 2 p 3.7
       hydro 2 s 1.2
       hydro 3 d 7
  #  "Third tier" - improvements: -0.25 meV to -0.12 meV
  #     hydro 4 f 11.2
  #     hydro 3 p 4.8
  #     hydro 4 d 9
  #     hydro 3 s 3.2
  ################################################################################
  #
  # For methods that use the localized form of the "resolution of identity" for
  # the two-electron Coulomb operator (RI_method LVL), particularly Hartree-Fock and
  # hybrid density functional calculations, the highest accuracy can be obtained by
  # uncommenting the line beginning with "for_aux"  below, thus adding an extra g radial
  # function to the construction of the product basis set for the expansion.
  # See Ref. New J. Phys. 17, 093020 (2015) for more information, particularly Figs. 1 and 6.
  #
  ################################################################################
  #
  # for_aux hydro 5 g 6.0
  ################################################################################
  #
  #  FHI-aims code project
  # Volker Blum, Fritz Haber Institute Berlin, 2009
  #
  #  Suggested "tight" defaults for C atom (to be pasted into control.in file)
  #
  ################################################################################
    species        C
  #     global species definitions
      nucleus             6
      mass                12.0107
  #
      l_hartree           6
  #
      cut_pot             4.0  2.0  1.0
      basis_dep_cutoff    1e-4
  #
      radial_base         34 7.0
      radial_multiplier   2
      angular_grids specified
        division   0.2187   50
        division   0.4416  110
        division   0.6335  194
        division   0.7727  302
        division   0.8772  434
  #      division   0.9334  590
  #      division   0.9924  770
  #      division   1.0230  974
  #      division   1.5020 1202
  #     outer_grid  974
        outer_grid  434
  ################################################################################
  #
  #  Definition of "minimal" basis
  #
  ################################################################################
  #     valence basis states
      valence      2  s   2.
      valence      2  p   2.
  #     ion occupancy
      ion_occ      2  s   1.
      ion_occ      2  p   1.
  ################################################################################
  #
  #  Suggested additional basis functions. For production calculations,
  #  uncomment them one after another (the most important basis functions are
  #  listed first).
  #
  #  Constructed for dimers: 1.0 A, 1.25 A, 1.5 A, 2.0 A, 3.0 A
  #
  ################################################################################
  #  "First tier" - improvements: -1214.57 meV to -155.61 meV
       hydro 2 p 1.7
       hydro 3 d 6
       hydro 2 s 4.9
  #  "Second tier" - improvements: -67.75 meV to -5.23 meV
       hydro 4 f 9.8
       hydro 3 p 5.2
       hydro 3 s 4.3
       hydro 5 g 14.4
       hydro 3 d 6.2
  #  "Third tier" - improvements: -2.43 meV to -0.60 meV
  #     hydro 2 p 5.6
  #     hydro 2 s 1.4
  #     hydro 3 d 4.9
  #     hydro 4 f 11.2
  #  "Fourth tier" - improvements: -0.39 meV to -0.18 meV
  #     hydro 2 p 2.1
  #     hydro 5 g 16.4
  #     hydro 4 d 13.2
  #     hydro 3 s 13.6
  #     hydro 4 f 17.6
  #  Further basis functions - improvements: -0.08 meV and below
  #     hydro 3 s 2
  #     hydro 3 p 6
  #     hydro 4 d 20
  ################################################################################
  #
  # For methods that use the localized form of the "resolution of identity" for
  # the two-electron Coulomb operator (RI_method LVL), particularly Hartree-Fock and
  # hybrid density functional calculations, the highest accuracy can be obtained by
  # uncommenting the line beginning with "for_aux"  below, thus adding an extra g radial
  # function to the construction of the product basis set for the expansion.
  # See Ref. New J. Phys. 17, 093020 (2015) for more information, particularly Figs. 1 and 6.
  #
  ################################################################################
  #
  # for_aux hydro 5 g 6.0
  
  -----------------------------------------------------------------------
  Completed first pass over input file control.in .
  -----------------------------------------------------------------------
  
  
  -----------------------------------------------------------------------
  Parsing geometry.in (first pass over file, find array dimensions only).
  The contents of geometry.in will be repeated verbatim below
  unless switched off by setting 'verbatim_writeout .false.' .
  in the first line of geometry.in .
  -----------------------------------------------------------------------
  
  #=======================================================
  # FHI-aims file: geometry.in
  # Created using the Atomic Simulation Environment (ASE)
  # Sun Jun 20 15:47:02 2021
  #=======================================================
  atom 16.3165399999999998 26.3618260000000006 61.3741130000000013 H
  atom 17.3196489999999983 25.9529850000000017 61.2843950000000035 C
  atom 17.6427060000000004 24.7615200000000009 61.9512149999999977 C
  atom 18.2639740000000010 26.6146600000000007 60.5108839999999972 C
  atom 16.5863540000000000 23.9814870000000013 62.7465499999999992 C
  atom 18.8684300000000000 24.2328560000000017 61.8469490000000022 C
  atom 17.9969280000000005 27.5394269999999999 60.0011909999999986 H
  atom 19.5067990000000009 26.0871239999999993 60.3750950000000017 C
  atom 16.3910769999999992 22.6164309999999986 62.4676979999999986 C
  atom 15.7680530000000001 24.6217450000000007 63.6267520000000033 C
  atom 19.1537620000000004 23.3104569999999995 62.3551870000000008 H
  atom 19.9089419999999997 24.9091850000000008 61.0006940000000029 C
  atom 20.5060099999999998 26.7747250000000001 59.5167160000000024 C
  atom 15.4058799999999998 21.9164299999999983 63.0496499999999997 C
  atom 17.0340530000000001 22.1363500000000002 61.7312859999999972 H
  atom 14.7526189999999993 23.8665109999999991 64.3226700000000022 C
  atom 15.9023230000000009 26.0713429999999988 63.9468260000000015 C
  atom 21.1384259999999990 24.3884119999999989 60.8527810000000002 C
  atom 20.2280259999999998 27.7097489999999986 59.0312709999999967 H
  atom 21.7094619999999985 26.2291530000000002 59.3954760000000022 C
  atom 15.2510890000000003 20.8721789999999991 62.7744349999999969 H
  atom 14.5518800000000006 22.4946909999999995 64.0025959999999969 C
  atom 13.9585000000000008 24.4222280000000005 65.3507850000000019 C
  atom 14.9386229999999998 27.0373659999999987 63.7892140000000012 C
  atom 17.1070349999999998 26.6913109999999989 64.5142290000000003 C
  atom 21.4204970000000010 23.4651099999999992 61.3573820000000012 H
  atom 22.0234980000000000 25.0410690000000002 60.0550220000000010 C
  atom 22.4778270000000013 26.7074299999999987 58.7873360000000034 H
  atom 13.5338460000000005 21.7744010000000010 64.6694159999999982 C
  atom 13.0170480000000008 23.6839030000000008 65.9739579999999961 C
  atom 14.1343209999999999 25.4530659999999997 65.6504900000000049 H
  atom 13.9465400000000006 26.8688469999999988 63.3765130000000028 H
  atom 15.4790639999999993 28.3133720000000011 64.2184029999999950 C
  atom 16.7927819999999990 28.0586219999999997 64.6669909999999959 C
  atom 18.3238190000000003 26.2573329999999991 64.8803740000000033 C
  atom 23.0219909999999999 24.6262539999999994 59.9136560000000031 H
  atom 13.3720099999999995 20.7320659999999997 64.3828050000000047 H
  atom 12.7871590000000008 22.3594259999999991 65.6102379999999954 C
  atom 12.4282649999999997 24.1247560000000014 66.7768099999999976 H
  atom 15.0249550000000003 29.6051600000000015 64.3323689999999999 C
  atom 17.6462639999999986 29.0156269999999985 65.1810490000000016 C
  atom 18.6325770000000013 25.2160130000000002 64.7894440000000031 H
  atom 19.2544620000000002 27.2177199999999999 65.4211039999999997 C
  atom 11.9988069999999993 21.8069780000000009 66.1245380000000011 H
  atom 14.0139030000000009 29.8808770000000017 64.0266019999999969 H
  atom 15.8740699999999997 30.5790730000000011 64.8488509999999962 C
  atom 17.1571670000000012 30.3051600000000008 65.2707659999999947 C
  atom 18.9255290000000009 28.5241620000000005 65.5641669999999976 C
  atom 20.2387000000000015 26.8744830000000015 65.7331760000000003 H
  atom 15.5061549999999997 31.6026969999999992 64.9276569999999964 H
  atom 17.7740830000000010 31.1027769999999997 65.6832249999999931 H
  atom 19.6577720000000014 29.2186379999999986 65.9783230000000032 H
  
  -----------------------------------------------------------------------
  Completed first pass over input file geometry.in .
  -----------------------------------------------------------------------
  

  Basic array size parameters:
  | Number of species                 :        2
  | Number of atoms                   :       52
  | Max. basis fn. angular momentum   :        4
  | Max. atomic/ionic basis occupied n:        2
  | Max. number of basis fn. types    :        2
  | Max. radial fns per species/type  :        8
  | Max. logarithmic grid size        :     1277
  | Max. radial integration grid size :       69
  | Max. angular integration grid size:      434
  | Max. angular grid division number :        8
  | Radial grid for Hartree potential :     1277
  | Number of spin channels           :        1

------------------------------------------------------------
          Reading file control.in.
------------------------------------------------------------
  XC: Using PBE gradient-corrected functionals.
  Scalar relativistic treatment of kinetic energy: ZORA.
  Threshold value for ZORA:   0.100000E-11
  Occupation type: Gaussian broadening, width =   0.100000E-03 eV.
  Since 'load_balancing .true.' is present in control.in, automatically turning on 'use_local_index .true.'.
  Using load balancing for integrations.
  Kohn-Sham electronic structure solved by the ELSI library.
  Using pulay charge density mixing.
  Pulay mixing - number of memorized iterations:    5
  Charge density mixing - mixing parameter:     0.4000
  Convergence accuracy of total energy:  0.1000E-05
  Convergence accuracy of sum of eigenvalues:  0.1000E-03
  Convergence accuracy of self-consistent charge density:  0.1000E-05
  Maximum number of s.-c. iterations  :   100
  * Ignoring prodbas_threshold
  Threshold for basis singularities:  0.1000E-04
  override_illconditioning: Explicitly overriding any built-in checks for an ill-conditioned overlap matrix.
  *** WARNING: If you use this flag, you should really know what you are doing.
  *** DO NOT keep this flag set by default in all your control.in files.
  Using 1D integrations for auxiliary 2-center integrals.
  Spin treatment: No spin polarisation.
  Charge =   0.000000E+00: Neutral system requested explicitly.
 
  Reading configuration options for species H                   .
  | Found nuclear charge :   1.0000
  | Found atomic mass :    1.00794000000000      amu
  | Found l_max for Hartree potential  :   6
  | Found cutoff potl. onset [A], width [A], scale factor :    4.00000    2.00000    1.00000
  | Threshold for basis-dependent cutoff potential is   0.100000E-03
  | Found data for basic radial integration grid :    24 points, outermost radius =    7.000 A
  | Found multiplier for basic radial grid :   2
  | Found angular grid specification: user-specified.
  | Specified grid contains     6 separate shells.
  | Check grid settings after all constraints further below.
  | Found free-atom valence shell :  1 s   1.000
  | No ionic wave fns used. Skipping ion_occ.
  | Found hydrogenic basis function :  2 s   2.100
  | Found hydrogenic basis function :  2 p   3.500
  | Found hydrogenic basis function :  1 s   0.850
  | Found hydrogenic basis function :  2 p   3.700
  | Found hydrogenic basis function :  2 s   1.200
  | Found hydrogenic basis function :  3 d   7.000
  Species H                   : Missing cutoff potential type.
  Defaulting to exp(1/x)/(1-x)^2 type cutoff potential.
  Species H : No 'logarithmic' tag. Using default grid for free atom:
  | Default logarithmic grid data [bohr] : 0.1000E-03 0.1000E+03 0.1012E+01
  Species H : On-site basis accuracy parameter (for Gram-Schmidt orthonormalisation) not specified.
  Using default value basis_acc =  0.1000000E-03.
  Species H                   : Using default innermost maximum threshold i_radial=  2 for radial functions.
  Species H                   : Default cutoff onset for free atom density etc. : 0.40000000E+01 AA.
  Species H                   : Basic radial grid will be enhanced according to radial_multiplier =   2, to contain    49 grid points.
 
  Reading configuration options for species C                   .
  | Found nuclear charge :   6.0000
  | Found atomic mass :    12.0107000000000      amu
  | Found l_max for Hartree potential  :   6
  | Found cutoff potl. onset [A], width [A], scale factor :    4.00000    2.00000    1.00000
  | Threshold for basis-dependent cutoff potential is   0.100000E-03
  | Found data for basic radial integration grid :    34 points, outermost radius =    7.000 A
  | Found multiplier for basic radial grid :   2
  | Found angular grid specification: user-specified.
  | Specified grid contains     6 separate shells.
  | Check grid settings after all constraints further below.
  | Found free-atom valence shell :  2 s   2.000
  | Found free-atom valence shell :  2 p   2.000
  | No ionic wave fns used. Skipping ion_occ.
  | No ionic wave fns used. Skipping ion_occ.
  | Found hydrogenic basis function :  2 p   1.700
  | Found hydrogenic basis function :  3 d   6.000
  | Found hydrogenic basis function :  2 s   4.900
  | Found hydrogenic basis function :  4 f   9.800
  | Found hydrogenic basis function :  3 p   5.200
  | Found hydrogenic basis function :  3 s   4.300
  | Found hydrogenic basis function :  5 g  14.400
  | Found hydrogenic basis function :  3 d   6.200
  Species C                   : Missing cutoff potential type.
  Defaulting to exp(1/x)/(1-x)^2 type cutoff potential.
  Species C : No 'logarithmic' tag. Using default grid for free atom:
  | Default logarithmic grid data [bohr] : 0.1000E-03 0.1000E+03 0.1012E+01
  Species C : On-site basis accuracy parameter (for Gram-Schmidt orthonormalisation) not specified.
  Using default value basis_acc =  0.1000000E-03.
  Species C                   : Using default innermost maximum threshold i_radial=  2 for radial functions.
  Species C                   : Default cutoff onset for free atom density etc. : 0.40000000E+01 AA.
  Species C                   : Basic radial grid will be enhanced according to radial_multiplier =   2, to contain    69 grid points.
 
  Finished reading input file 'control.in'. Consistency checks are next.
 
  MPI_IN_PLACE appears to work with this MPI implementation.
  | Keeping use_mpi_in_place .true. (see manual).
  Target number of points in a grid batch is not set. Defaulting to  100
  Method for grid partitioning is not set. Defaulting to parallel hash+maxmin partitioning.
  Batch size limit is not set. Defaulting to    200
  By default, will store active basis functions for each batch.
  If in need of memory, prune_basis_once .false. can be used to disable this option.
  communication_type for Hartree potential was not specified.
  Defaulting to calc_hartree .
  Pulay mixer: Number of initial linear mixing iterations not set.
  Defaulting to    0 iterations.
  Work space size for distributed Hartree potential not set.
  Defaulting to   0.200000E+03 MB.
  Algorithm-dependent basis array size parameters:
  | n_max_pulay                         :        5
  Presetting      1001 iterations before the initial mixing cycle
  is restarted anyway using the sc_init_iter criterion / keyword.
  Presetting a factor      1.000 between actual scf density residual
  and density convergence criterion sc_accuracy_rho below which sc_init_iter
  takes no effect.
  Calculation of forces was not defined in control.in. No forces will be calculated.
  Geometry relaxation not requested: no relaxation will be performed.
  No accuracy limit for integral partition fn. given. Defaulting to  0.1000E-14.
  No threshold value for u(r) in integrations given. Defaulting to  0.1000E-05.
  No accuracy for occupation numbers given. Defaulting to  0.1000E-12.
  No threshold value for occupation numbers given. Defaulting to  0.0000E+00.
  No accuracy for fermi level given. Defaulting to  0.1000E-19.
  Maximum # of iterations to find E_F not set. Defaulting to  200.
  Will not use alltoall communication since running on < 1024 CPUs.
  partition_type (choice of integration weights) for integrals was not specified.
  | Using a version of the partition function of Stratmann and coworkers ('stratmann_sparse').
  | At each grid point, the set of atoms used to build the partition table is smoothly restricted to
  | only those atoms whose free-atom density would be non-zero at that grid point.
  Partitioning for Hartree potential was not defined. Using partition_type for integrals.
  | Adjusted default value of keyword multip_moments_threshold to:       0.10000000E-11
  | This value may affect high angular momentum components of the Hartree potential in periodic systems.
  No q(lm)/r^(l+1) cutoff set for long-range Hartree potential.
  | Using default value of  0.100000E-09 .
  | Verify using the multipole_threshold keyword.
  Defaulting to new monopole extrapolation.
  Density update method: automatic selection selected.
 * Warning: use_local_index and/or load_balancing needs packed_matrix_format = index
 * Changing the default setting to packed_matrix_format = index
------------------------------------------------------------


------------------------------------------------------------
          Reading geometry description geometry.in.
------------------------------------------------------------
  Input structure read successfully.
  The structure contains       52 atoms,  and a total of        212.000 electrons.

  Input geometry:
  | No unit cell requested.
  | Atomic structure:
  |       Atom                x [A]            y [A]            z [A]
  |    1: Species H            16.31654000       26.36182600       61.37411300
  |    2: Species C            17.31964900       25.95298500       61.28439500
  |    3: Species C            17.64270600       24.76152000       61.95121500
  |    4: Species C            18.26397400       26.61466000       60.51088400
  |    5: Species C            16.58635400       23.98148700       62.74655000
  |    6: Species C            18.86843000       24.23285600       61.84694900
  |    7: Species H            17.99692800       27.53942700       60.00119100
  |    8: Species C            19.50679900       26.08712400       60.37509500
  |    9: Species C            16.39107700       22.61643100       62.46769800
  |   10: Species C            15.76805300       24.62174500       63.62675200
  |   11: Species H            19.15376200       23.31045700       62.35518700
  |   12: Species C            19.90894200       24.90918500       61.00069400
  |   13: Species C            20.50601000       26.77472500       59.51671600
  |   14: Species C            15.40588000       21.91643000       63.04965000
  |   15: Species H            17.03405300       22.13635000       61.73128600
  |   16: Species C            14.75261900       23.86651100       64.32267000
  |   17: Species C            15.90232300       26.07134300       63.94682600
  |   18: Species C            21.13842600       24.38841200       60.85278100
  |   19: Species H            20.22802600       27.70974900       59.03127100
  |   20: Species C            21.70946200       26.22915300       59.39547600
  |   21: Species H            15.25108900       20.87217900       62.77443500
  |   22: Species C            14.55188000       22.49469100       64.00259600
  |   23: Species C            13.95850000       24.42222800       65.35078500
  |   24: Species C            14.93862300       27.03736600       63.78921400
  |   25: Species C            17.10703500       26.69131100       64.51422900
  |   26: Species H            21.42049700       23.46511000       61.35738200
  |   27: Species C            22.02349800       25.04106900       60.05502200
  |   28: Species H            22.47782700       26.70743000       58.78733600
  |   29: Species C            13.53384600       21.77440100       64.66941600
  |   30: Species C            13.01704800       23.68390300       65.97395800
  |   31: Species H            14.13432100       25.45306600       65.65049000
  |   32: Species H            13.94654000       26.86884700       63.37651300
  |   33: Species C            15.47906400       28.31337200       64.21840300
  |   34: Species C            16.79278200       28.05862200       64.66699100
  |   35: Species C            18.32381900       26.25733300       64.88037400
  |   36: Species H            23.02199100       24.62625400       59.91365600
  |   37: Species H            13.37201000       20.73206600       64.38280500
  |   38: Species C            12.78715900       22.35942600       65.61023800
  |   39: Species H            12.42826500       24.12475600       66.77681000
  |   40: Species C            15.02495500       29.60516000       64.33236900
  |   41: Species C            17.64626400       29.01562700       65.18104900
  |   42: Species H            18.63257700       25.21601300       64.78944400
  |   43: Species C            19.25446200       27.21772000       65.42110400
  |   44: Species H            11.99880700       21.80697800       66.12453800
  |   45: Species H            14.01390300       29.88087700       64.02660200
  |   46: Species C            15.87407000       30.57907300       64.84885100
  |   47: Species C            17.15716700       30.30516000       65.27076600
  |   48: Species C            18.92552900       28.52416200       65.56416700
  |   49: Species H            20.23870000       26.87448300       65.73317600
  |   50: Species H            15.50615500       31.60269700       64.92765700
  |   51: Species H            17.77408300       31.10277700       65.68322500
  |   52: Species H            19.65777200       29.21863800       65.97832300
  |

  | The smallest distance between any two atoms is         1.08693512 AA.
  |
  | The first atom of this pair is atom number                      1 .
  | The second atom of this pair is atom number                     2 .

  Number of empty states per atom not set in control.in - providing a guess from actual geometry.
  | Total number of empty states used during s.c.f. cycle:      126
  If you use a very high smearing, use empty_states (per atom!) in control.in to increase this value.

  Structure-dependent array size parameters: 
  | Maximum number of distinct radial functions  :       18
  | Maximum number of basis functions            :     1548
  | Number of Kohn-Sham states (occupied + empty):      232
------------------------------------------------------------

------------------------------------------------------------
          Preparing all fixed parts of the calculation.
------------------------------------------------------------
  Determining machine precision:
    2.225073858507201E-308
  Setting up grids for atomic and cluster calculations.

  Creating wave function, potential, and density for free atoms.

  Species: H

  List of occupied orbitals and eigenvalues:
    n    l              occ      energy [Ha]    energy [eV]
    1    0           1.0000        -0.238386        -6.4868


  Species: C

  List of occupied orbitals and eigenvalues:
    n    l              occ      energy [Ha]    energy [eV]
    1    0           2.0000       -10.049212      -273.4530
    2    0           2.0000        -0.504761       -13.7352
    2    1           2.0000        -0.193631        -5.2690

  Creating fixed part of basis set: Ionic, confined, hydrogenic.
 
  H                    hydrogenic:
 
  List of hydrogenic basis orbitals: 
    n    l      effective z      eigenvalue [eV]  inner max. [A]     outer max. [A]     outer radius [A]   
    2    0         2.100000       -14.9965           0.193243           1.317208           5.373006
    2    1         3.500000       -41.6672           0.602369           0.602369           4.056063
    1    0         0.850000        -9.8292           0.624871           0.624871           5.373006
    2    1         3.700000       -46.5653           0.573622           0.573622           3.910002
    2    0         1.200000        -4.5995           0.334980           2.228188           5.505995
    3    2         7.000000       -74.0753           0.680699           0.680699           3.769201
 
 
  C                    hydrogenic:
 
  List of hydrogenic basis orbitals: 
    n    l      effective z      eigenvalue [eV]  inner max. [A]     outer max. [A]     outer radius [A]   
    2    1         1.700000        -9.8152           1.245706           1.245706           5.401630
    3    2         6.000000       -54.4226           0.792453           0.792453           4.178599
    2    0         4.900000       -81.6681           0.082559           0.562749           3.353238
    4    3         9.800000       -81.6681           0.863254           0.863254           4.028125
    3    1         5.200000       -40.8774           0.305389           1.215618           4.898362
    3    0         4.300000       -27.9508           0.091041           1.610311           5.401630
    5    4        14.400000      -112.8510           0.917666           0.917666           3.883070
    3    2         6.200000       -58.1113           0.763917           0.763917           4.077671
 

  Adding cutoff potential to free-atom effective potential.
  Creating atomic-like basis functions for current effective potential.

  Species H                   :

  List of atomic basis orbitals and eigenvalues:
    n    l      energy [Ha]    energy [eV]    outer radius [A]
    1    0        -0.238386        -6.4868       5.373006


  Species C                   :

  List of atomic basis orbitals and eigenvalues:
    n    l      energy [Ha]    energy [eV]    outer radius [A]
    1    0       -10.049212      -273.4530       1.934409
    2    0        -0.504761       -13.7352       5.271162
    2    1        -0.193631        -5.2690       5.401630

  Assembling full basis from fixed parts.
  | Species H :   atomic orbital   1 s accepted.
  | Species H :    hydro orbital   2 s accepted.
  | Species H :    hydro orbital   1 s accepted.
  | Species H :    hydro orbital   2 s accepted.
  | Species H :    hydro orbital   2 p accepted.
  | Species H :    hydro orbital   2 p accepted.
  | Species H :    hydro orbital   3 d accepted.
  | Species C :   atomic orbital   1 s accepted.
  | Species C :    hydro orbital   2 s accepted.
  | Species C :   atomic orbital   2 s accepted.
  | Species C :    hydro orbital   3 s accepted.
  | Species C :    hydro orbital   3 p accepted.
  | Species C :   atomic orbital   2 p accepted.
  | Species C :    hydro orbital   2 p accepted.
  | Species C :    hydro orbital   3 d accepted.
  | Species C :    hydro orbital   3 d accepted.
  | Species C :    hydro orbital   4 f accepted.
  | Species C :    hydro orbital   5 g accepted.
 
  Basis size parameters after reduction:
  | Total number of radial functions:       18
  | Total number of basis functions :     1548
 
  Per-task memory consumption for arrays in subroutine allocate_ext:
  |           4.449576MB.
  Testing on-site integration grid accuracy.
  |  Species  Function  <phi|h_atom|phi> (log., in eV)  <phi|h_atom|phi> (rad., in eV)
           1        1                 -6.4870767962                 -6.4871688290
           1        2                 13.5032046589                 13.5028982997
           1        3                 32.8195184817                 32.8119941656
           1        4                 33.8513856511                 33.7670005767 ***
           1        5                 28.8544614965                 28.8544615203
           1        6                 59.6326952547                 59.6327656460
           1        7                 60.2719308513                 60.2719305949
           2        8               -273.4529726040               -273.4529710464
           2        9                -10.7721037319                -10.7721022101
           2       10                 17.6044132601                 17.6044162063
           2       11                 53.7706460658                 53.7706913770
           2       12                 15.0973290362                 15.0973256030
           2       13                  3.8545134692                  3.8545724687
           2       14                 12.1156992592                 12.1182024431
           2       15                 29.4352039302                 29.4352041816
           2       16                 54.8741144708                 54.8740268729
           2       17                 59.3556032049                 59.3556031382
           2       18                 93.4551837154                 93.4551838009
 * Note: Onsite integrals marked "***" above are less accurate than
 * onsite_accuracy_threshold =    0.03000 eV. Usually, this is harmless.
 * When in doubt, tighten the "radial" and/or "radial_multiplier" flags to check.

  Preparing densities etc. for the partition functions (integrals / Hartree potential).

  Preparations completed.
  max(cpu_time)          :      0.188 s.
  Wall clock time (cpu1) :      0.185 s.
------------------------------------------------------------

------------------------------------------------------------
          Begin self-consistency loop: Initialization.

          Date     :  20210620, Time     :  173553.088
------------------------------------------------------------

  Initializing index lists of integration centers etc. from given atomic structure:
  | Number of centers in hartree potential         :        52
  | Number of centers in hartree multipole         :        52
  | Number of centers in electron density summation:        52
  | Number of centers in basis integrals           :        52
  | Number of centers in integrals                 :        52
  | Number of centers in hamiltonian               :        52
  * Using 56 tasks for Scalapack Eigenvalue solver.
  Detailed listing of tasks and assigned k-points:
  (for non-periodic systems, the "k-point" denotes an internal label only)
   Task     0 k-point     1 on d024
   Task     1 k-point     1 on d024
   Task     2 k-point     1 on d024
   Task     3 k-point     1 on d024
   Task     4 k-point     1 on d024
   Task     5 k-point     1 on d024
   Task     6 k-point     1 on d024
   Task     7 k-point     1 on d024
   Task     8 k-point     1 on d024
   Task     9 k-point     1 on d024
   Task    10 k-point     1 on d024
   Task    11 k-point     1 on d024
   Task    12 k-point     1 on d024
   Task    13 k-point     1 on d024
   Task    14 k-point     1 on d024
   Task    15 k-point     1 on d024
   Task    16 k-point     1 on d024
   Task    17 k-point     1 on d024
   Task    18 k-point     1 on d024
   Task    19 k-point     1 on d024
   Task    20 k-point     1 on d024
   Task    21 k-point     1 on d024
   Task    22 k-point     1 on d024
   Task    23 k-point     1 on d024
   Task    24 k-point     1 on d024
   Task    25 k-point     1 on d024
   Task    26 k-point     1 on d024
   Task    27 k-point     1 on d024
   Task    28 k-point     1 on d024
   Task    29 k-point     1 on d024
   Task    30 k-point     1 on d024
   Task    31 k-point     1 on d024
   Task    32 k-point     1 on d024
   Task    33 k-point     1 on d024
   Task    34 k-point     1 on d024
   Task    35 k-point     1 on d024
   Task    36 k-point     1 on d024
   Task    37 k-point     1 on d024
   Task    38 k-point     1 on d024
   Task    39 k-point     1 on d024
   Task    40 k-point     1 on d024
   Task    41 k-point     1 on d024
   Task    42 k-point     1 on d024
   Task    43 k-point     1 on d024
   Task    44 k-point     1 on d024
   Task    45 k-point     1 on d024
   Task    46 k-point     1 on d024
   Task    47 k-point     1 on d024
   Task    48 k-point     1 on d024
   Task    49 k-point     1 on d024
   Task    50 k-point     1 on d024
   Task    51 k-point     1 on d024
   Task    52 k-point     1 on d024
   Task    53 k-point     1 on d024
   Task    54 k-point     1 on d024
   Task    55 k-point     1 on d024
  Tasks:    56 split into      8 X      7 BLACS grid
  Calculating block size based on n_basis =         1548 max_nprow =            8 max_npcol =            7
  ScaLAPACK block size set to:           16
  Allocating        0.366 MB for ovlp
  Allocating        0.366 MB for ham
  Allocating        0.366 MB for eigenvec
  Required Scalapack workspace - INTEGER:            1 REAL:             1
  Partitioning the integration grid into batches with parallel hashing+maxmin method.
  | Number of batches:     7677
  | Maximal batch size:     194
  | Minimal batch size:       2
  | Average batch size:     112.999
  | Standard deviation of batch sizes:      31.939

  Integration load balanced across     56 MPI tasks.
  Work distribution over tasks is as follows:
  Task      0 has      15547 integration points.
  Task      1 has      15522 integration points.
  Task      2 has      15508 integration points.
  Task      3 has      15616 integration points.
  Task      4 has      15494 integration points.
  Task      5 has      15486 integration points.
  Task      6 has      15356 integration points.
  Task      7 has      15566 integration points.
  Task      8 has      15522 integration points.
  Task      9 has      15424 integration points.
  Task     10 has      15515 integration points.
  Task     11 has      15502 integration points.
  Task     12 has      15533 integration points.
  Task     13 has      15408 integration points.
  Task     14 has      15530 integration points.
  Task     15 has      15650 integration points.
  Task     16 has      15402 integration points.
  Task     17 has      15651 integration points.
  Task     18 has      15373 integration points.
  Task     19 has      15468 integration points.
  Task     20 has      15466 integration points.
  Task     21 has      15568 integration points.
  Task     22 has      15493 integration points.
  Task     23 has      15446 integration points.
  Task     24 has      15572 integration points.
  Task     25 has      15485 integration points.
  Task     26 has      15388 integration points.
  Task     27 has      15371 integration points.
  Task     28 has      15585 integration points.
  Task     29 has      15534 integration points.
  Task     30 has      15396 integration points.
  Task     31 has      15622 integration points.
  Task     32 has      15473 integration points.
  Task     33 has      15542 integration points.
  Task     34 has      15328 integration points.
  Task     35 has      15589 integration points.
  Task     36 has      15523 integration points.
  Task     37 has      15418 integration points.
  Task     38 has      15538 integration points.
  Task     39 has      15511 integration points.
  Task     40 has      15416 integration points.
  Task     41 has      15360 integration points.
  Task     42 has      15537 integration points.
  Task     43 has      15557 integration points.
  Task     44 has      15409 integration points.
  Task     45 has      15510 integration points.
  Task     46 has      15444 integration points.
  Task     47 has      15532 integration points.
  Task     48 has      15413 integration points.
  Task     49 has      15551 integration points.
  Task     50 has      15470 integration points.
  Task     51 has      15450 integration points.
  Task     52 has      15513 integration points.
  Task     53 has      15507 integration points.
  Task     54 has      15504 integration points.
  Task     55 has      15402 integration points.
  Initializing partition tables, free-atom densities, potentials, etc. across the integration grid (initialize_grid_storage).
  | initialize_grid_storage: Actual outermost partition radius vs. multipole_radius_free
  | (-- VB: in principle, multipole_radius_free should be larger, hence this output)
  | Species        1: Confinement radius =              6.000000000000000 AA, multipole_radius_free =              6.071692442739658 AA.
  | Species        1: outer_partition_radius set to              6.071692442739658 AA .
  | Species        2: Confinement radius =              6.000000000000000 AA, multipole_radius_free =              6.029870734432609 AA.
  | Species        2: outer_partition_radius set to              6.029870734432609 AA .
  | The sparse table of interatomic distances needs     32.0360 kbyte instead of    21.6320 kbyte of memory.
  | Using the partition_type stratmann_smoother will reduce your memory usage.
  | Net number of integration points:   867496
  | of which are non-zero points    :   688428
  Renormalizing the initial density to the exact electron count on the 3D integration grid.
  | Initial density: Formal number of electrons (from input files) :     212.0000000000
  | Integrated number of electrons on 3D grid     :     211.9998900667
  | Charge integration error                      :      -0.0001099333
  | Normalization factor for density and gradient :       1.0000005186
  Obtaining max. number of non-zero basis functions in each batch (get_n_compute_maxes).
  | Maximal number of non-zero basis functions:     1073
  Selecting the method for density update.
  Loop over occupied states selected for charge density update.
  Hamiltonian matrix size:
  | Size of matrix non-packed:               1198926
  | Size of matrix packed:         1083880
  Allocating        2.873 MB for KS_eigenvector
  use_local_index: Max. local matrix size =       863835
  Task:     0 matrix size:     205547
  Task:     1 matrix size:     615957
  Task:     2 matrix size:     649104
  Task:     3 matrix size:     204454
  Task:     4 matrix size:     363381
  Task:     5 matrix size:     507240
  Task:     6 matrix size:     688508
  Task:     7 matrix size:      88831
  Task:     8 matrix size:     247953
  Task:     9 matrix size:     175525
  Task:    10 matrix size:     298863
  Task:    11 matrix size:     176580
  Task:    12 matrix size:     599547
  Task:    13 matrix size:     513055
  Task:    14 matrix size:     461286
  Task:    15 matrix size:     504098
  Task:    16 matrix size:     661934
  Task:    17 matrix size:     177192
  Task:    18 matrix size:      84666
  Task:    19 matrix size:     231201
  Task:    20 matrix size:     308882
  Task:    21 matrix size:     469012
  Task:    22 matrix size:     782981
  Task:    23 matrix size:     825578
  Task:    24 matrix size:     469716
  Task:    25 matrix size:     695837
  Task:    26 matrix size:     789938
  Task:    27 matrix size:     585731
  Task:    28 matrix size:     718058
  Task:    29 matrix size:     713625
  Task:    30 matrix size:     863835
  Task:    31 matrix size:     624358
  Task:    32 matrix size:     647650
  Task:    33 matrix size:     466477
  Task:    34 matrix size:     578248
  Task:    35 matrix size:     590290
  Task:    36 matrix size:     764322
  Task:    37 matrix size:     656979
  Task:    38 matrix size:     268949
  Task:    39 matrix size:     253428
  Task:    40 matrix size:     303792
  Task:    41 matrix size:     142845
  Task:    42 matrix size:     227843
  Task:    43 matrix size:     131328
  Task:    44 matrix size:     103740
  Task:    45 matrix size:     683948
  Task:    46 matrix size:     680607
  Task:    47 matrix size:     550087
  Task:    48 matrix size:     349153
  Task:    49 matrix size:     831678
  Task:    50 matrix size:     573464
  Task:    51 matrix size:     345606
  Task:    52 matrix size:     624472
  Task:    53 matrix size:     390433
  Task:    54 matrix size:     228810
  Task:    55 matrix size:     147153
  Integrating Hamiltonian matrix: batch-based integration.
  Time summed over all CPUs for integration: real work      159.124 s, elapsed      323.682 s
  Time get_set_sparse_local_matrix_scalapack:     0.016969 s
  Start compute_balanced_batch_distribution
  Done load balancing, time needed:      0.009 s
  Integrating overlap matrix with loadbalancing
  Time summed over all CPUs for integration: real work       45.893 s, elapsed       53.093 s
  Time get_set_full_local_matrix_scalapack:     0.019333 s

  Updating Kohn-Sham eigenvalues and eigenvectors using ELSI and the ELPA eigensolver.
  Overlap matrix is not singular
  | Lowest and highest eigenvalues :  0.13E+02,  0.85E-04
  Finished singularity check of overlap matrix
  | Time :     0.094 s
  Finished Cholesky decomposition
  | Time :     0.021 s
  Finished transformation to standard eigenproblem
  | Time :     0.015 s
  Starting ELPA eigensolver
  Finished solving standard eigenproblem
  | Time :     0.099 s
  Finished back-transformation of eigenvectors
  | Time :     0.004 s

  Obtaining occupation numbers and chemical potential using ELSI.
  | Chemical potential (Fermi level):    -8.25036710 eV
  Writing Kohn-Sham eigenvalues.

  State    Occupation    Eigenvalue [Ha]    Eigenvalue [eV]
      1       2.00000         -10.183939         -277.11908
      2       2.00000         -10.181019         -277.03963
      3       2.00000         -10.179654         -277.00247
      4       2.00000         -10.177659         -276.94819
      5       2.00000         -10.177296         -276.93831
      6       2.00000         -10.177258         -276.93727
      7       2.00000         -10.176649         -276.92071
      8       2.00000         -10.176639         -276.92045
      9       2.00000         -10.176482         -276.91616
     10       2.00000         -10.176334         -276.91214
     11       2.00000         -10.175834         -276.89853
     12       2.00000         -10.174926         -276.87383
     13       2.00000         -10.174131         -276.85219
     14       2.00000         -10.174129         -276.85213
     15       2.00000         -10.172865         -276.81775
     16       2.00000         -10.172763         -276.81496
     17       2.00000         -10.172461         -276.80675
     18       2.00000         -10.171945         -276.79270
     19       2.00000         -10.171907         -276.79166
     20       2.00000         -10.171170         -276.77163
     21       2.00000         -10.170674         -276.75811
     22       2.00000         -10.169959         -276.73867
     23       2.00000         -10.169925         -276.73773
     24       2.00000         -10.169649         -276.73022
     25       2.00000         -10.168818         -276.70763
     26       2.00000         -10.168256         -276.69233
     27       2.00000         -10.166221         -276.63695
     28       2.00000         -10.165910         -276.62848
     29       2.00000         -10.163850         -276.57242
     30       2.00000         -10.163719         -276.56887
     31       2.00000         -10.162459         -276.53458
     32       2.00000         -10.159385         -276.45094
     33       2.00000          -1.039680          -28.29112
     34       2.00000          -1.021318          -27.79146
     35       2.00000          -1.015763          -27.64032
     36       2.00000          -0.984265          -26.78321
     37       2.00000          -0.972174          -26.45421
     38       2.00000          -0.966685          -26.30483
     39       2.00000          -0.965512          -26.27292
     40       2.00000          -0.921866          -25.08526
     41       2.00000          -0.917277          -24.96039
     42       2.00000          -0.903264          -24.57907
     43       2.00000          -0.889547          -24.20580
     44       2.00000          -0.882257          -24.00744
     45       2.00000          -0.875444          -23.82205
     46       2.00000          -0.872138          -23.73207
     47       2.00000          -0.863269          -23.49075
     48       2.00000          -0.853163          -23.21574
     49       2.00000          -0.787674          -21.43371
     50       2.00000          -0.781788          -21.27352
     51       2.00000          -0.777705          -21.16243
     52       2.00000          -0.771501          -20.99360
     53       2.00000          -0.767340          -20.88038
     54       2.00000          -0.746435          -20.31154
     55       2.00000          -0.743824          -20.24048
     56       2.00000          -0.740477          -20.14941
     57       2.00000          -0.728023          -19.81052
     58       2.00000          -0.706168          -19.21582
     59       2.00000          -0.674126          -18.34389
     60       2.00000          -0.670505          -18.24537
     61       2.00000          -0.668178          -18.18204
     62       2.00000          -0.658852          -17.92828
     63       2.00000          -0.652908          -17.76653
     64       2.00000          -0.651918          -17.73960
     65       2.00000          -0.645614          -17.56806
     66       2.00000          -0.637250          -17.34045
     67       2.00000          -0.629913          -17.14080
     68       2.00000          -0.609979          -16.59836
     69       2.00000          -0.607086          -16.51964
     70       2.00000          -0.600568          -16.34229
     71       2.00000          -0.596605          -16.23444
     72       2.00000          -0.590887          -16.07886
     73       2.00000          -0.584921          -15.91651
     74       2.00000          -0.576559          -15.68897
     75       2.00000          -0.575632          -15.66374
     76       2.00000          -0.572588          -15.58092
     77       2.00000          -0.569421          -15.49473
     78       2.00000          -0.564555          -15.36232
     79       2.00000          -0.548022          -14.91245
     80       2.00000          -0.547426          -14.89623
     81       2.00000          -0.542459          -14.76107
     82       2.00000          -0.541217          -14.72726
     83       2.00000          -0.531130          -14.45279
     84       2.00000          -0.529262          -14.40195
     85       2.00000          -0.526355          -14.32285
     86       2.00000          -0.521722          -14.19678
     87       2.00000          -0.517913          -14.09313
     88       2.00000          -0.512468          -13.94497
     89       2.00000          -0.505894          -13.76607
     90       2.00000          -0.499601          -13.59484
     91       2.00000          -0.495456          -13.48203
     92       2.00000          -0.487330          -13.26093
     93       2.00000          -0.482092          -13.11838
     94       2.00000          -0.478143          -13.01093
     95       2.00000          -0.475495          -12.93887
     96       2.00000          -0.470317          -12.79796
     97       2.00000          -0.466016          -12.68095
     98       2.00000          -0.435453          -11.84928
     99       2.00000          -0.431223          -11.73417
    100       2.00000          -0.413135          -11.24197
    101       2.00000          -0.401668          -10.92994
    102       2.00000          -0.393410          -10.70522
    103       2.00000          -0.387470          -10.54359
    104       2.00000          -0.384522          -10.46338
    105       2.00000          -0.371018          -10.09592
    106       2.00000          -0.363766           -9.89858
    107       0.00000          -0.273141           -7.43255
    108       0.00000          -0.246543           -6.70877
    109       0.00000          -0.242189           -6.59030
    110       0.00000          -0.222588           -6.05692
    111       0.00000          -0.215487           -5.86370
    112       0.00000          -0.200915           -5.46717
    113       0.00000          -0.186816           -5.08352
    114       0.00000          -0.180623           -4.91500
    115       0.00000          -0.165967           -4.51619
    116       0.00000          -0.162399           -4.41910
    117       0.00000          -0.125373           -3.41158
    118       0.00000          -0.106731           -2.90429
    119       0.00000          -0.094583           -2.57372
    120       0.00000          -0.078849           -2.14559
    121       0.00000          -0.070742           -1.92498
    122       0.00000          -0.066247           -1.80266
    123       0.00000          -0.061260           -1.66698
    124       0.00000          -0.056125           -1.52725
    125       0.00000          -0.054197           -1.47478
    126       0.00000          -0.050728           -1.38038
    127       0.00000          -0.043247           -1.17681
    128       0.00000          -0.040813           -1.11057
    129       0.00000          -0.034265           -0.93239
    130       0.00000          -0.031510           -0.85743
    131       0.00000          -0.026998           -0.73465
    132       0.00000          -0.021789           -0.59292
    133       0.00000          -0.021349           -0.58095
    134       0.00000          -0.018891           -0.51405
    135       0.00000          -0.017741           -0.48277
    136       0.00000          -0.013252           -0.36060
    137       0.00000          -0.009928           -0.27015
    138       0.00000          -0.006974           -0.18978
    139       0.00000          -0.005631           -0.15323
    140       0.00000          -0.003899           -0.10610
    141       0.00000           0.002153            0.05858
    142       0.00000           0.004969            0.13523
    143       0.00000           0.007092            0.19299
    144       0.00000           0.008360            0.22747
    145       0.00000           0.017923            0.48770
    146       0.00000           0.026130            0.71102
    147       0.00000           0.029194            0.79441
    148       0.00000           0.030751            0.83677
    149       0.00000           0.036735            0.99961
    150       0.00000           0.037656            1.02467
    151       0.00000           0.043120            1.17337
    152       0.00000           0.045138            1.22827
    153       0.00000           0.048432            1.31789
    154       0.00000           0.049302            1.34156
    155       0.00000           0.051879            1.41171
    156       0.00000           0.053057            1.44375
    157       0.00000           0.057174            1.55577
    158       0.00000           0.058727            1.59804
    159       0.00000           0.060219            1.63865
    160       0.00000           0.064074            1.74353
    161       0.00000           0.065897            1.79314
    162       0.00000           0.068710            1.86970
    163       0.00000           0.072537            1.97383
    164       0.00000           0.076263            2.07521
    165       0.00000           0.077689            2.11404
    166       0.00000           0.080663            2.19494
    167       0.00000           0.083261            2.26566
    168       0.00000           0.084441            2.29775
    169       0.00000           0.085993            2.33999
    170       0.00000           0.089392            2.43247
    171       0.00000           0.092979            2.53009
    172       0.00000           0.096814            2.63445
    173       0.00000           0.098424            2.67826
    174       0.00000           0.102611            2.79218
    175       0.00000           0.103848            2.82585
    176       0.00000           0.106700            2.90345
    177       0.00000           0.109146            2.97000
    178       0.00000           0.112039            3.04872
    179       0.00000           0.115145            3.13326
    180       0.00000           0.119319            3.24682
    181       0.00000           0.120680            3.28386
    182       0.00000           0.122624            3.33678
    183       0.00000           0.124204            3.37976
    184       0.00000           0.127898            3.48030
    185       0.00000           0.129436            3.52213
    186       0.00000           0.133924            3.64426
    187       0.00000           0.137261            3.73505
    188       0.00000           0.139473            3.79526
    189       0.00000           0.142786            3.88541
    190       0.00000           0.145268            3.95295
    191       0.00000           0.147372            4.01019
    192       0.00000           0.150505            4.09545
    193       0.00000           0.151972            4.13537
    194       0.00000           0.153867            4.18693
    195       0.00000           0.156287            4.25277
    196       0.00000           0.158447            4.31157
    197       0.00000           0.159106            4.32948
    198       0.00000           0.161713            4.40042
    199       0.00000           0.164102            4.46544
    200       0.00000           0.167980            4.57096
    201       0.00000           0.172080            4.68255
    202       0.00000           0.173573            4.72318
    203       0.00000           0.175831            4.78462
    204       0.00000           0.177154            4.82062
    205       0.00000           0.179634            4.88810
    206       0.00000           0.185545            5.04895
    207       0.00000           0.188234            5.12212
    208       0.00000           0.192459            5.23708
    209       0.00000           0.192970            5.25099
    210       0.00000           0.196060            5.33506
    211       0.00000           0.199172            5.41975
    212       0.00000           0.201213            5.47528
    213       0.00000           0.203534            5.53845
    214       0.00000           0.205106            5.58122
    215       0.00000           0.209895            5.71154
    216       0.00000           0.212255            5.77575
    217       0.00000           0.215604            5.86687
    218       0.00000           0.221346            6.02314
    219       0.00000           0.223953            6.09407
    220       0.00000           0.225509            6.13642
    221       0.00000           0.232772            6.33406
    222       0.00000           0.234701            6.38655
    223       0.00000           0.238898            6.50074
    224       0.00000           0.241903            6.58253
    225       0.00000           0.245216            6.67266
    226       0.00000           0.246671            6.71226
    227       0.00000           0.251071            6.83200
    228       0.00000           0.255761            6.95960
    229       0.00000           0.261314            7.11072
    230       0.00000           0.261822            7.12453
    231       0.00000           0.264131            7.18737
    232       0.00000           0.268418            7.30402

  Highest occupied state (VBM) at     -9.89857644 eV
  | Occupation number:      2.00000000

  Lowest unoccupied state (CBM) at    -7.43255406 eV
  | Occupation number:      0.00000000

  Overall HOMO-LUMO gap:      2.46602239 eV.
  Calculating total energy contributions from superposition of free atom densities.

  Total energy components:
  | Sum of eigenvalues            :        -747.21297823 Ha      -20332.69965406 eV
  | XC energy correction          :        -176.74121939 Ha       -4809.37327770 eV
  | XC potential correction       :         227.02657532 Ha        6177.70743265 eV
  | Free-atom electrostatic energy:        -535.56352956 Ha      -14573.42512691 eV
  | Hartree energy correction     :           0.00000000 Ha           0.00000000 eV
  | Entropy correction            :           0.00000000 Ha           0.00000000 eV
  | ---------------------------
  | Total energy                  :       -1232.49115186 Ha      -33537.79062601 eV
  | Total energy, T -> 0          :       -1232.49115186 Ha      -33537.79062601 eV  <-- do not rely on this value for anything but (periodic) metals
  | Electronic free energy        :       -1232.49115186 Ha      -33537.79062601 eV

  Derived energy quantities:
  | Kinetic energy                :        1221.12045709 Ha       33228.37827881 eV
  | Electrostatic energy          :       -2276.87038957 Ha      -61956.79562713 eV
  | Energy correction for multipole
  | error in Hartree potential    :           0.00000000 Ha           0.00000000 eV
  | Sum of eigenvalues per atom                           :        -391.01345489 eV
  | Total energy (T->0) per atom                          :        -644.95751204 eV  <-- do not rely on this value for anything but (periodic) metals
  | Electronic free energy per atom                       :        -644.95751204 eV
  Initialize hartree_potential_storage
  Max. number of atoms included in rho_multipole:           52

  End scf initialization - timings             :  max(cpu_time)    wall_clock(cpu1)
  | Time for scf. initialization               :        8.943 s           9.004 s
  | Boundary condition initialization          :        0.001 s           0.004 s
  | Integration                                :        6.792 s           6.797 s
  | Solution of K.-S. eqns.                    :        0.253 s           0.270 s
  | Grid partitioning                          :        0.844 s           0.849 s
  | Preloading free-atom quantities on grid    :        0.013 s           0.016 s
  | Free-atom superposition energy             :        0.078 s           0.079 s
  | Total energy evaluation                    :        0.001 s           0.005 s

  Partial memory accounting:
  | Current value for overall tracked memory usage on task 0  :           4.793 MB
  | Peak value for overall tracked memory usage on task 0     :          30.661 MB after allocating zora_vector2
  | Largest tracked array allocation on task 0 so far         :           9.211 MB  when allocating hamiltonian_shell
  Note:  These values currently only include a subset of arrays which are explicitly tracked.
  The "true" memory usage will be greater.
------------------------------------------------------------

------------------------------------------------------------
          Begin self-consistency iteration #    1

  Date     :  20210620, Time     :  173602.095
------------------------------------------------------------
  Evaluating new KS density.
  Integration grid: deviation in total charge (<rho> - N_e) =   1.989520E-13
  Pulay mixing of updated and previous charge densities.

  Evaluating partitioned Hartree potential by multipole expansion.
  | Analytical far-field extrapolation by fixed multipoles:
  | Hartree multipole sum: apparent total charge =  -0.120483E-03
  Summing up the Hartree potential with load balancing.
  Time summed over all CPUs for potential: real work       28.873 s, elapsed       49.045 s
  | RMS charge density error from multipole expansion :   0.136855E-01

  Start compute_balanced_batch_distribution
  Done load balancing, time needed:      0.008 s
  Integrating Hamiltonian matrix: batch-based integration with load balancing
  Time summed over all CPUs for integration: real work      177.304 s, elapsed      196.657 s
  Time get_set_full_local_matrix_scalapack:     0.019057 s
  Start compute_balanced_batch_distribution
  Done load balancing, time needed:      0.008 s

  Updating Kohn-Sham eigenvalues and eigenvectors using ELSI and the ELPA eigensolver.
  Finished transformation to standard eigenproblem
  | Time :     0.018 s
  Starting ELPA eigensolver
  Finished solving standard eigenproblem
  | Time :     0.097 s
  Finished back-transformation of eigenvectors
  | Time :     0.004 s

  Obtaining occupation numbers and chemical potential using ELSI.
  | Chemical potential (Fermi level):    -5.90736626 eV
  Writing Kohn-Sham eigenvalues.

  State    Occupation    Eigenvalue [Ha]    Eigenvalue [eV]
      1       2.00000          -9.987312         -271.76859
      2       2.00000          -9.982561         -271.63931
      3       2.00000          -9.976267         -271.46803
      4       2.00000          -9.972651         -271.36965
      5       2.00000          -9.968997         -271.27021
      6       2.00000          -9.964265         -271.14144
      7       2.00000          -9.959034         -270.99910
      8       2.00000          -9.958899         -270.99544
      9       2.00000          -9.958846         -270.99399
     10       2.00000          -9.956775         -270.93763
     11       2.00000          -9.954876         -270.88597
     12       2.00000          -9.954830         -270.88471
     13       2.00000          -9.954588         -270.87813
     14       2.00000          -9.953225         -270.84102
     15       2.00000          -9.951882         -270.80448
     16       2.00000          -9.951514         -270.79448
     17       2.00000          -9.948998         -270.72601
     18       2.00000          -9.948779         -270.72004
     19       2.00000          -9.948586         -270.71481
     20       2.00000          -9.948085         -270.70117
     21       2.00000          -9.947021         -270.67222
     22       2.00000          -9.945104         -270.62004
     23       2.00000          -9.943459         -270.57529
     24       2.00000          -9.942677         -270.55401
     25       2.00000          -9.938838         -270.44955
     26       2.00000          -9.938444         -270.43883
     27       2.00000          -9.937512         -270.41347
     28       2.00000          -9.935598         -270.36138
     29       2.00000          -9.934891         -270.34213
     30       2.00000          -9.934436         -270.32976
     31       2.00000          -9.932338         -270.27267
     32       2.00000          -9.920731         -269.95683
     33       2.00000          -0.873813          -23.77765
     34       2.00000          -0.861780          -23.45023
     35       2.00000          -0.853240          -23.21783
     36       2.00000          -0.824486          -22.43541
     37       2.00000          -0.812171          -22.10031
     38       2.00000          -0.806671          -21.95062
     39       2.00000          -0.801348          -21.80578
     40       2.00000          -0.768568          -20.91381
     41       2.00000          -0.761645          -20.72541
     42       2.00000          -0.745475          -20.28540
     43       2.00000          -0.734723          -19.99283
     44       2.00000          -0.725556          -19.74338
     45       2.00000          -0.718521          -19.55195
     46       2.00000          -0.713963          -19.42792
     47       2.00000          -0.706382          -19.22163
     48       2.00000          -0.695725          -18.93163
     49       2.00000          -0.641662          -17.46051
     50       2.00000          -0.630633          -17.16040
     51       2.00000          -0.628512          -17.10268
     52       2.00000          -0.618294          -16.82464
     53       2.00000          -0.617654          -16.80723
     54       2.00000          -0.601216          -16.35992
     55       2.00000          -0.598976          -16.29898
     56       2.00000          -0.590021          -16.05530
     57       2.00000          -0.581284          -15.81753
     58       2.00000          -0.562029          -15.29360
     59       2.00000          -0.528463          -14.38020
     60       2.00000          -0.527190          -14.34556
     61       2.00000          -0.521750          -14.19753
     62       2.00000          -0.520171          -14.15458
     63       2.00000          -0.515584          -14.02975
     64       2.00000          -0.507459          -13.80866
     65       2.00000          -0.502493          -13.67354
     66       2.00000          -0.482978          -13.14250
     67       2.00000          -0.481173          -13.09339
     68       2.00000          -0.467341          -12.71699
     69       2.00000          -0.464125          -12.62949
     70       2.00000          -0.460401          -12.52814
     71       2.00000          -0.453172          -12.33145
     72       2.00000          -0.448637          -12.20804
     73       2.00000          -0.441890          -12.02443
     74       2.00000          -0.435199          -11.84236
     75       2.00000          -0.433261          -11.78963
     76       2.00000          -0.430095          -11.70348
     77       2.00000          -0.429723          -11.69335
     78       2.00000          -0.421106          -11.45887
     79       2.00000          -0.416121          -11.32322
     80       2.00000          -0.411940          -11.20947
     81       2.00000          -0.409856          -11.15274
     82       2.00000          -0.404797          -11.01508
     83       2.00000          -0.397477          -10.81589
     84       2.00000          -0.395934          -10.77391
     85       2.00000          -0.392589          -10.68289
     86       2.00000          -0.384027          -10.44991
     87       2.00000          -0.378650          -10.30359
     88       2.00000          -0.367441           -9.99858
     89       2.00000          -0.362095           -9.85312
     90       2.00000          -0.356442           -9.69927
     91       2.00000          -0.352853           -9.60162
     92       2.00000          -0.347222           -9.44839
     93       2.00000          -0.344851           -9.38388
     94       2.00000          -0.341855           -9.30234
     95       2.00000          -0.339088           -9.22706
     96       2.00000          -0.332576           -9.04984
     97       2.00000          -0.329780           -8.97376
     98       2.00000          -0.303713           -8.26444
     99       2.00000          -0.299525           -8.15050
    100       2.00000          -0.278944           -7.59044
    101       2.00000          -0.269470           -7.33266
    102       2.00000          -0.260704           -7.09412
    103       2.00000          -0.254416           -6.92301
    104       2.00000          -0.249607           -6.79216
    105       2.00000          -0.237320           -6.45780
    106       2.00000          -0.229612           -6.24805
    107       0.00000          -0.147256           -4.00705
    108       0.00000          -0.116446           -3.16866
    109       0.00000          -0.111489           -3.03377
    110       0.00000          -0.093185           -2.53570
    111       0.00000          -0.082374           -2.24151
    112       0.00000          -0.068963           -1.87658
    113       0.00000          -0.061335           -1.66900
    114       0.00000          -0.055129           -1.50013
    115       0.00000          -0.038989           -1.06095
    116       0.00000          -0.033140           -0.90179
    117       0.00000          -0.027200           -0.74015
    118       0.00000          -0.021084           -0.57372
    119       0.00000          -0.020666           -0.56235
    120       0.00000          -0.015118           -0.41138
    121       0.00000          -0.008317           -0.22631
    122       0.00000          -0.006524           -0.17752
    123       0.00000          -0.005807           -0.15802
    124       0.00000           0.005104            0.13888
    125       0.00000           0.008017            0.21816
    126       0.00000           0.010370            0.28219
    127       0.00000           0.011438            0.31125
    128       0.00000           0.019422            0.52851
    129       0.00000           0.022093            0.60118
    130       0.00000           0.025322            0.68904
    131       0.00000           0.026329            0.71644
    132       0.00000           0.032145            0.87472
    133       0.00000           0.035073            0.95440
    134       0.00000           0.039773            1.08228
    135       0.00000           0.041837            1.13845
    136       0.00000           0.047469            1.29169
    137       0.00000           0.055827            1.51913
    138       0.00000           0.060492            1.64606
    139       0.00000           0.065204            1.77430
    140       0.00000           0.076619            2.08492
    141       0.00000           0.079039            2.15075
    142       0.00000           0.083508            2.27237
    143       0.00000           0.087526            2.38171
    144       0.00000           0.091679            2.49471
    145       0.00000           0.096760            2.63298
    146       0.00000           0.096905            2.63691
    147       0.00000           0.100271            2.72852
    148       0.00000           0.103800            2.82455
    149       0.00000           0.108752            2.95930
    150       0.00000           0.109519            2.98015
    151       0.00000           0.110655            3.01109
    152       0.00000           0.115416            3.14063
    153       0.00000           0.116267            3.16379
    154       0.00000           0.125590            3.41747
    155       0.00000           0.128374            3.49324
    156       0.00000           0.130478            3.55048
    157       0.00000           0.132660            3.60987
    158       0.00000           0.132866            3.61547
    159       0.00000           0.136184            3.70576
    160       0.00000           0.137393            3.73865
    161       0.00000           0.145051            3.94703
    162       0.00000           0.145834            3.96835
    163       0.00000           0.149086            4.05683
    164       0.00000           0.149542            4.06925
    165       0.00000           0.155244            4.22442
    166       0.00000           0.156841            4.26785
    167       0.00000           0.157672            4.29047
    168       0.00000           0.159966            4.35291
    169       0.00000           0.165193            4.49514
    170       0.00000           0.166625            4.53409
    171       0.00000           0.170236            4.63236
    172       0.00000           0.171245            4.65982
    173       0.00000           0.175124            4.76536
    174       0.00000           0.175499            4.77557
    175       0.00000           0.179359            4.88061
    176       0.00000           0.180167            4.90260
    177       0.00000           0.183711            4.99902
    178       0.00000           0.186123            5.06467
    179       0.00000           0.187521            5.10270
    180       0.00000           0.192163            5.22903
    181       0.00000           0.192549            5.23952
    182       0.00000           0.197516            5.37469
    183       0.00000           0.200195            5.44759
    184       0.00000           0.200915            5.46717
    185       0.00000           0.206487            5.61879
    186       0.00000           0.207348            5.64222
    187       0.00000           0.210574            5.73001
    188       0.00000           0.210820            5.73671
    189       0.00000           0.212424            5.78036
    190       0.00000           0.214999            5.85043
    191       0.00000           0.215470            5.86323
    192       0.00000           0.217396            5.91564
    193       0.00000           0.220891            6.01074
    194       0.00000           0.222945            6.06664
    195       0.00000           0.226139            6.15355
    196       0.00000           0.229354            6.24104
    197       0.00000           0.231721            6.30544
    198       0.00000           0.234247            6.37420
    199       0.00000           0.238104            6.47913
    200       0.00000           0.241280            6.56556
    201       0.00000           0.247168            6.72579
    202       0.00000           0.249526            6.78994
    203       0.00000           0.253407            6.89556
    204       0.00000           0.256275            6.97359
    205       0.00000           0.257333            7.00237
    206       0.00000           0.261983            7.12892
    207       0.00000           0.265585            7.22692
[...]
     62       2.00000          -0.461280          -12.55207
     63       2.00000          -0.456128          -12.41188
     64       2.00000          -0.448790          -12.21221
     65       2.00000          -0.443435          -12.06648
     66       2.00000          -0.424253          -11.54450
     67       2.00000          -0.422830          -11.50578
     68       2.00000          -0.410698          -11.17566
     69       2.00000          -0.404412          -11.00462
     70       2.00000          -0.403487          -10.97944
     71       2.00000          -0.397129          -10.80642
     72       2.00000          -0.389442          -10.59726
     73       2.00000          -0.384165          -10.45365
     74       2.00000          -0.375834          -10.22695
     75       2.00000          -0.374656          -10.19491
     76       2.00000          -0.373502          -10.16350
     77       2.00000          -0.371747          -10.11576
     78       2.00000          -0.370113          -10.07127
     79       2.00000          -0.364391           -9.91557
     80       2.00000          -0.358639           -9.75908
     81       2.00000          -0.356257           -9.69423
     82       2.00000          -0.355307           -9.66840
     83       2.00000          -0.349265           -9.50399
     84       2.00000          -0.345109           -9.39089
     85       2.00000          -0.333492           -9.07478
     86       2.00000          -0.325332           -8.85273
     87       2.00000          -0.319376           -8.69066
     88       2.00000          -0.312495           -8.50343
     89       2.00000          -0.308672           -8.39939
     90       2.00000          -0.306982           -8.35342
     91       2.00000          -0.304086           -8.27460
     92       2.00000          -0.300689           -8.18216
     93       2.00000          -0.293691           -7.99173
     94       2.00000          -0.293066           -7.97473
     95       2.00000          -0.290350           -7.90081
     96       2.00000          -0.281800           -7.66817
     97       2.00000          -0.272317           -7.41013
     98       2.00000          -0.263300           -7.16475
     99       2.00000          -0.258774           -7.04161
    100       2.00000          -0.239667           -6.52167
    101       2.00000          -0.231870           -6.30951
    102       2.00000          -0.220702           -6.00561
    103       2.00000          -0.215074           -5.85246
    104       2.00000          -0.209343           -5.69651
    105       2.00000          -0.197285           -5.36840
    106       2.00000          -0.187764           -5.10931
    107       0.00000          -0.106622           -2.90134
    108       0.00000          -0.074274           -2.02109
    109       0.00000          -0.069788           -1.89902
    110       0.00000          -0.051256           -1.39476
    111       0.00000          -0.044718           -1.21684
    112       0.00000          -0.028532           -0.77641
    113       0.00000          -0.022193           -0.60390
    114       0.00000          -0.016341           -0.44465
    115       0.00000          -0.007521           -0.20466
    116       0.00000          -0.000494           -0.01343
    117       0.00000           0.000221            0.00601
    118       0.00000           0.001032            0.02807
    119       0.00000           0.005276            0.14356
    120       0.00000           0.006483            0.17641
    121       0.00000           0.013148            0.35777
    122       0.00000           0.014856            0.40424
    123       0.00000           0.015087            0.41054
    124       0.00000           0.029075            0.79117
    125       0.00000           0.030562            0.83163
    126       0.00000           0.032748            0.89112
    127       0.00000           0.039996            1.08834
    128       0.00000           0.043394            1.18082
    129       0.00000           0.045920            1.24953
    130       0.00000           0.049818            1.35563
    131       0.00000           0.052831            1.43760
    132       0.00000           0.060578            1.64840
    133       0.00000           0.062738            1.70719
    134       0.00000           0.067851            1.84631
    135       0.00000           0.069991            1.90456
    136       0.00000           0.070929            1.93009
    137       0.00000           0.081294            2.21211
    138       0.00000           0.082872            2.25506
    139       0.00000           0.087169            2.37198
    140       0.00000           0.100403            2.73210
    141       0.00000           0.104729            2.84982
    142       0.00000           0.107787            2.93304
    143       0.00000           0.115077            3.13139
    144       0.00000           0.117856            3.20702
    145       0.00000           0.120782            3.28666
    146       0.00000           0.125458            3.41388
    147       0.00000           0.126970            3.45502
    148       0.00000           0.131576            3.58036
    149       0.00000           0.135967            3.69984
    150       0.00000           0.138652            3.77291
    151       0.00000           0.139580            3.79816
    152       0.00000           0.144431            3.93016
    153       0.00000           0.145411            3.95683
    154       0.00000           0.155648            4.23540
    155       0.00000           0.155919            4.24278
    156       0.00000           0.159085            4.32893
    157       0.00000           0.162587            4.42423
    158       0.00000           0.164265            4.46987
    159       0.00000           0.166671            4.53534
    160       0.00000           0.168120            4.57479
    161       0.00000           0.170857            4.64926
    162       0.00000           0.175576            4.77766
    163       0.00000           0.178982            4.87036
    164       0.00000           0.181996            4.95235
    165       0.00000           0.182954            4.97842
    166       0.00000           0.184485            5.02009
    167       0.00000           0.187489            5.10183
    168       0.00000           0.190446            5.18230
    169       0.00000           0.195345            5.31560
    170       0.00000           0.198187            5.39293
    171       0.00000           0.200039            5.44334
    172       0.00000           0.202328            5.50564
    173       0.00000           0.207295            5.64077
    174       0.00000           0.208059            5.66158
    175       0.00000           0.208738            5.68005
    176       0.00000           0.212115            5.77195
    177       0.00000           0.215384            5.86090
    178       0.00000           0.218005            5.93221
    179       0.00000           0.219079            5.96144
    180       0.00000           0.221340            6.02296
    181       0.00000           0.223506            6.08190
    182       0.00000           0.227752            6.19744
    183       0.00000           0.228471            6.21701
    184       0.00000           0.230342            6.26793
    185       0.00000           0.235795            6.41631
    186       0.00000           0.236418            6.43326
    187       0.00000           0.239672            6.52180
    188       0.00000           0.241255            6.56488
    189       0.00000           0.242005            6.58529
    190       0.00000           0.244514            6.65358
    191       0.00000           0.245172            6.67146
    192       0.00000           0.248312            6.75691
    193       0.00000           0.252085            6.85958
    194       0.00000           0.253759            6.90514
    195       0.00000           0.258378            7.03083
    196       0.00000           0.260664            7.09302
    197       0.00000           0.263393            7.16730
    198       0.00000           0.267712            7.28481
    199       0.00000           0.273582            7.44453
    200       0.00000           0.275613            7.49981
    201       0.00000           0.279867            7.61558
    202       0.00000           0.281408            7.65751
    203       0.00000           0.284067            7.72985
    204       0.00000           0.285215            7.76109
    205       0.00000           0.287036            7.81065
    206       0.00000           0.294468            8.01288
    207       0.00000           0.296364            8.06449
    208       0.00000           0.299079            8.13834
    209       0.00000           0.304394            8.28297
    210       0.00000           0.306684            8.34530
    211       0.00000           0.308165            8.38560
    212       0.00000           0.312696            8.50888
    213       0.00000           0.314096            8.54699
    214       0.00000           0.318381            8.66359
    215       0.00000           0.321871            8.75857
    216       0.00000           0.323868            8.81289
    217       0.00000           0.326727            8.89068
    218       0.00000           0.330109            8.98272
    219       0.00000           0.333275            9.06886
    220       0.00000           0.337856            9.19353
    221       0.00000           0.338815            9.21961
    222       0.00000           0.343276            9.34103
    223       0.00000           0.345603            9.40434
    224       0.00000           0.353740            9.62575
    225       0.00000           0.355671            9.67829
    226       0.00000           0.359834            9.79159
    227       0.00000           0.362512            9.86445
    228       0.00000           0.366089            9.96178
    229       0.00000           0.370422           10.07969
    230       0.00000           0.373967           10.17616
    231       0.00000           0.377239           10.26521
    232       0.00000           0.378997           10.31304

  Highest occupied state (VBM) at     -5.10931451 eV
  | Occupation number:      2.00000000

  Lowest unoccupied state (CBM) at    -2.90134373 eV
  | Occupation number:      0.00000000

  Overall HOMO-LUMO gap:      2.20797078 eV.

  Total energy components:
  | Sum of eigenvalues            :        -700.24232973 Ha      -19054.56327735 eV
  | XC energy correction          :        -180.13377362 Ha       -4901.68937546 eV
  | XC potential correction       :         231.41178762 Ha        6297.03513071 eV
  | Free-atom electrostatic energy:        -535.56352956 Ha      -14573.42512691 eV
  | Hartree energy correction     :         -46.38006701 Ha       -1262.06583658 eV
  | Entropy correction            :           0.00000000 Ha           0.00000000 eV
  | ---------------------------
  | Total energy                  :       -1230.90791230 Ha      -33494.70848559 eV
  | Total energy, T -> 0          :       -1230.90791230 Ha      -33494.70848559 eV  <-- do not rely on this value for anything but (periodic) metals
  | Electronic free energy        :       -1230.90791230 Ha      -33494.70848559 eV

  Derived energy quantities:
  | Kinetic energy                :        1228.57788445 Ha       33431.30520195 eV
  | Electrostatic energy          :       -2279.35202312 Ha      -62024.32431208 eV
  | Energy correction for multipole
  | error in Hartree potential    :          -0.14393987 Ha          -3.91680325 eV
  | Sum of eigenvalues per atom                           :        -366.43390918 eV
  | Total energy (T->0) per atom                          :        -644.12900934 eV  <-- do not rely on this value for anything but (periodic) metals
  | Electronic free energy per atom                       :        -644.12900934 eV
  End evaluation of scaled ZORA corrections.
  | Time for scaled ZORA corrections           :        6.549 s           6.560 s
------------------------------------------------------------

  Energy and forces in a compact form:
  | Total energy uncorrected      :         -0.334947084855901E+05 eV
  | Total energy corrected        :         -0.334947084855901E+05 eV  <-- do not rely on this value for anything but (periodic) metals
  | Electronic free energy        :         -0.334947084855901E+05 eV

  ------------------------------------ 
  Start decomposition of the XC Energy 
  ------------------------------------ 
  X and C from original XC functional choice 
  Hartree-Fock Energy :          0.000000000 Ha              0.000000000 eV
  X Energy            :       -173.023565373 Ha          -4708.210764939 eV
  C Energy            :         -7.110208248 Ha           -193.478610522 eV
  Total XC Energy     :       -180.133773622 Ha          -4901.689375461 eV
  ------------------------------------ 
  LDA X and C from self-consistent density 
  X Energy LDA        :       -156.724009376 Ha          -4264.677279521 eV
  C Energy LDA        :        -13.688071282 Ha           -372.471370707 eV
  ------------------------------------ 
  End decomposition of the XC Energy 
  ------------------------------------ 

------------------------------------------------------------

------------------------------------------------------------------------------
  Final output of selected total energy values:

  The following output summarizes some interesting total energy values
  at the end of a run (AFTER all relaxation, molecular dynamics, etc.).

  | Total energy of the DFT / Hartree-Fock s.c.f. calculation      :         -33494.708485590 eV
  | Final zero-broadening corrected energy (caution - metals only) :         -33494.708485590 eV
  | For reference only, the value of 1 Hartree used in FHI-aims is :             27.211384500 eV

  Before relying on these values, please be sure to understand exactly which
  total energy value is referred to by a given number. Different objects may
  all carry the same name 'total energy'. Definitions:

  Total energy of the DFT / Hartree-Fock s.c.f. calculation:
  | Note that this energy does not include ANY quantities calculated after the
  | s.c.f. cycle, in particular not ANY RPA, MP2, etc. many-body perturbation terms.
  | Scalar relativistic effects have been included in the 'scaled ZORA' approximation.

  Final zero-broadening corrected energy:
  | For metallic systems only, a broadening of the occupation numbers at the Fermi
  | level can be extrapolated back to zero broadening by an electron-gas inspired
  | formula. For all systems that are not real metals, this value can be
  | meaningless and should be avoided.

------------------------------------------------------------------------------
  Methods described in the following list of references were used in this FHI-aims run.
  If you publish the results, please make sure to cite these reference if they apply.
  FHI-aims is an academic code, and for our developers (often, Ph.D. students
  and postdocs), scientific credit in the community is essential.
  Thank you for helping us!

  For any use of FHI-aims, please cite:

    Volker Blum, Ralf Gehrke, Felix Hanke, Paula Havu, Ville Havu,
    Xinguo Ren, Karsten Reuter, and Matthias Scheffler
    'Ab initio molecular simulations with numeric atom-centered orbitals'
    Computer Physics Communications 180, 2175-2196 (2009)
    http://dx.doi.org/10.1016/j.cpc.2009.06.022


  The scalable eigensolver library ELPA was used in your run.
  ELPA is essential especially for large systems on hundreds or thousands of CPUs.
  For ELPA, please cite:

    Andreas Marek, Volker Blum, Rainer Johanni, Ville Havu, Bruno Lang,
    Thomas Auckenthaler, Alexander Heinecke, Hans-Joachim Bungartz, and Hermann Lederer,
    'The ELPA Library - Scalable Parallel Eigenvalue Solutions
    for Electronic Structure Theory and Computational Science'
    The Journal of Physics: Condensed Matter 26, 213201 (2014).
    http://dx.doi.org/10.1088/0953-8984/26/21/213201


  The ELSI infrastructure was used in your run to solve the Kohn-Sham electronic structure.
  Please check out http://elsi-interchange.org to learn more.
  If scalability is important for your project, please acknowledge ELSI by citing:

    V. W-z. Yu, F. Corsetti, A. Garcia, W. P. Huhn, M. Jacquelin, W. Jia,
    B. Lange, L. Lin, J. Lu, W. Mi, A. Seifitokaldani, A. Vazquez-Mayagoitia,
    C. Yang, H. Yang, and V. Blum
    'ELSI: A unified software interface for Kohn-Sham electronic structure solvers'
    Computer Physics Communications 222, 267-285 (2018).
    http://dx.doi.org/10.1016/j.cpc.2017.09.007


  For the real-space grid partitioning and parallelization used in this calculation, please cite:

    Ville Havu, Volker Blum, Paula Havu, and Matthias Scheffler,
    'Efficient O(N) integration for all-electron electronic structure calculation'
    'using numerically tabulated basis functions'
    Journal of Computational Physics 228, 8367-8379 (2009).
    http://dx.doi.org/10.1016/j.jcp.2009.08.008

  Of course, there are many other important community references, e.g., those cited in the
  above references. Our list is limited to references that describe implementations in the
  FHI-aims code. The reason is purely practical (length of this list) - please credit others as well.

------------------------------------------------------------
          Leaving FHI-aims.
          Date     :  20210620, Time     :  173750.729

          Computational steps:
          | Number of self-consistency cycles          :           18
          | Number of SCF (re)initializations          :            1

          Detailed time accounting                     :  max(cpu_time)    wall_clock(cpu1)
          | Total time                                 :      117.827 s         118.016 s
          | Preparation time                           :        0.188 s           0.185 s
          | Boundary condition initalization           :        0.001 s           0.004 s
          | Grid partitioning                          :        0.844 s           0.849 s
          | Preloading free-atom quantities on grid    :        0.013 s           0.016 s
          | Free-atom superposition energy             :        0.078 s           0.079 s
          | Total time for integrations                :       66.906 s          66.910 s
          | Total time for solution of K.-S. equations :        3.271 s           3.297 s
          | Total time for density update              :       27.464 s          27.412 s
          | Total time for mixing                      :        0.152 s           0.156 s
          | Total time for Hartree multipole update    :        0.170 s           0.175 s
          | Total time for Hartree multipole sum       :       10.961 s          10.965 s
          | Total time for total energy evaluation     :        0.008 s           0.032 s
          | Total time for scaled ZORA corrections     :        6.549 s           6.560 s

          Partial memory accounting:
          | Residual value for overall tracked memory usage across tasks :     0.000000 MB (should be 0.000000 MB)
          | Peak values for overall tracked memory usage (after allocating zora_vector2):
          |   Minimum:       29.792 MB (on task  8)
          |   Maximum:       38.496 MB (on task 31)
          |   Average:       34.507 MB
          | Largest tracked array allocation (hamiltonian_shell):
          |   Minimum:        9.211 MB (on task  1)
          |   Maximum:        9.211 MB (on task  1)
          |   Average:        9.211 MB
          Note:  These values currently only include a subset of arrays which are explicitly tracked.
          The "true" memory usage will be greater.

          Have a nice day.
------------------------------------------------------------
