  MPI-parallelism will be employed.
------------------------------------------------------------
          Invoking FHI-aims ...
          Version 180607
          Git rev. (modified): 6724847 Fix JSON memory corruption in scf_solver
          Compiled on 2018/06/27 at 16:00:31 on host coe.psc.edu.

          When using FHI-aims, please cite the following reference:

          Volker Blum, Ralf Gehrke, Felix Hanke, Paula Havu,
          Ville Havu, Xinguo Ren, Karsten Reuter, and Matthias Scheffler,
          'Ab Initio Molecular Simulations with Numeric Atom-Centered Orbitals',
          Computer Physics Communications 180, 2175-2196 (2009)

          For any questions about FHI-aims, please visit the aimsclub website
          with its forums and wiki. Contributions to both the forums and the
          wiki are warmly encouraged - they are for you, and everyone is welcome there.

------------------------------------------------------------



  Date     :  20210620, Time     :  170121.394
  Time zero on CPU 1             :   0.236957000000000E+00  s.
  Internal wall clock time zero  :           393440481.394  s.

  FHI-aims created a unique identifier for this run for later identification
  aims_uuid : 3D0FDFE6-A9C1-4507-AF74-146D9B0381AE

  Using       56 parallel tasks.
  Task        0 on host d021 reporting.
  Task        1 on host d021 reporting.
  Task        2 on host d021 reporting.
  Task        3 on host d021 reporting.
  Task        4 on host d021 reporting.
  Task        5 on host d021 reporting.
  Task        6 on host d021 reporting.
  Task        7 on host d021 reporting.
  Task        8 on host d021 reporting.
  Task        9 on host d021 reporting.
  Task       10 on host d021 reporting.
  Task       11 on host d021 reporting.
  Task       12 on host d021 reporting.
  Task       13 on host d021 reporting.
  Task       14 on host d021 reporting.
  Task       15 on host d021 reporting.
  Task       16 on host d021 reporting.
  Task       17 on host d021 reporting.
  Task       18 on host d021 reporting.
  Task       19 on host d021 reporting.
  Task       20 on host d021 reporting.
  Task       21 on host d021 reporting.
  Task       22 on host d021 reporting.
  Task       23 on host d021 reporting.
  Task       24 on host d021 reporting.
  Task       25 on host d021 reporting.
  Task       26 on host d021 reporting.
  Task       27 on host d021 reporting.
  Task       28 on host d021 reporting.
  Task       29 on host d021 reporting.
  Task       30 on host d021 reporting.
  Task       31 on host d021 reporting.
  Task       32 on host d021 reporting.
  Task       33 on host d021 reporting.
  Task       34 on host d021 reporting.
  Task       35 on host d021 reporting.
  Task       36 on host d021 reporting.
  Task       37 on host d021 reporting.
  Task       38 on host d021 reporting.
  Task       39 on host d021 reporting.
  Task       40 on host d021 reporting.
  Task       41 on host d021 reporting.
  Task       42 on host d021 reporting.
  Task       43 on host d021 reporting.
  Task       44 on host d021 reporting.
  Task       45 on host d021 reporting.
  Task       46 on host d021 reporting.
  Task       47 on host d021 reporting.
  Task       48 on host d021 reporting.
  Task       49 on host d021 reporting.
  Task       50 on host d021 reporting.
  Task       51 on host d021 reporting.
  Task       52 on host d021 reporting.
  Task       53 on host d021 reporting.
  Task       54 on host d021 reporting.
  Task       55 on host d021 reporting.

  Performing system and environment tests:
  *** Environment variable OMP_NUM_THREADS is not set
  *** For performance reasons you might want to set it to 1
  | Stacksize not measured: no C compiler
  | Checking for scalapack...
  | Testing pdtran()...
  | All pdtran() tests passed.

  Obtaining array dimensions for all initial allocations:
  
  -----------------------------------------------------------------------
  Parsing control.in (first pass over file, find array dimensions only).
  The contents of control.in will be repeated verbatim below
  unless switched off by setting 'verbatim_writeout .false.' .
  in the first line of control.in .
  -----------------------------------------------------------------------
  
  #===============================================================================
  # FHI-aims file: ./Runs/es/control.in
  # Created using the Atomic Simulation Environment (ASE)
  # Mon Jan 13 16:04:38 2020
  #===============================================================================
  xc                                 pbe
  relativistic                       zora scalar 1e-12
  occupation_type                    gaussian 0.0001
  load_balancing                     .true.
  KS_method                          scalapack_fast
  mixer                              pulay
  n_max_pulay                        5
  charge_mix_param                   0.4
  sc_accuracy_etot                   1e-6
  sc_accuracy_eev                    1e-4
  sc_accuracy_rho                    1e-6
  sc_iter_limit                      100
  prodbas_threshold                  1e-4
  basis_threshold                    1e-5
  override_illconditioning           .true.
  use_logsbt                         .true.
  spin                               none
  charge                             0
  #===============================================================================
  
  ################################################################################
  #
  #  FHI-aims code project
  # Volker Blum, Fritz Haber Institute Berlin, 2009
  #
  #  Suggested "tight" defaults for H atom (to be pasted into control.in file)
  #
  ################################################################################
    species        H
  #     global species definitions
      nucleus             1
      mass                1.00794
  #
      l_hartree           6
  #
      cut_pot             4.0  2.0  1.0
      basis_dep_cutoff    1e-4
  #
      radial_base         24 7.0
      radial_multiplier   2
      angular_grids       specified
        division   0.1930   50
        division   0.3175  110
        division   0.4293  194
        division   0.5066  302
        division   0.5626  434
  #      division   0.5922  590
  #      division   0.6227  974
  #      division   0.6868 1202
  #      outer_grid  770
        outer_grid  434
  ################################################################################
  #
  #  Definition of "minimal" basis
  #
  ################################################################################
  #     valence basis states
      valence      1  s   1.
  #     ion occupancy
      ion_occ      1  s   0.5
  ################################################################################
  #
  #  Suggested additional basis functions. For production calculations,
  #  uncomment them one after another (the most important basis functions are
  #  listed first).
  #
  #  Basis constructed for dimers: 0.5 A, 0.7 A, 1.0 A, 1.5 A, 2.5 A
  #
  ################################################################################
  #  "First tier" - improvements: -1014.90 meV to -62.69 meV
       hydro 2 s 2.1
       hydro 2 p 3.5
  #  "Second tier" - improvements: -12.89 meV to -1.83 meV
       hydro 1 s 0.85
       hydro 2 p 3.7
       hydro 2 s 1.2
       hydro 3 d 7
  #  "Third tier" - improvements: -0.25 meV to -0.12 meV
  #     hydro 4 f 11.2
  #     hydro 3 p 4.8
  #     hydro 4 d 9
  #     hydro 3 s 3.2
  ################################################################################
  #
  # For methods that use the localized form of the "resolution of identity" for
  # the two-electron Coulomb operator (RI_method LVL), particularly Hartree-Fock and
  # hybrid density functional calculations, the highest accuracy can be obtained by
  # uncommenting the line beginning with "for_aux"  below, thus adding an extra g radial
  # function to the construction of the product basis set for the expansion.
  # See Ref. New J. Phys. 17, 093020 (2015) for more information, particularly Figs. 1 and 6.
  #
  ################################################################################
  #
  # for_aux hydro 5 g 6.0
  ################################################################################
  #
  #  FHI-aims code project
  # Volker Blum, Fritz Haber Institute Berlin, 2009
  #
  #  Suggested "tight" defaults for C atom (to be pasted into control.in file)
  #
  ################################################################################
    species        C
  #     global species definitions
      nucleus             6
      mass                12.0107
  #
      l_hartree           6
  #
      cut_pot             4.0  2.0  1.0
      basis_dep_cutoff    1e-4
  #
      radial_base         34 7.0
      radial_multiplier   2
      angular_grids specified
        division   0.2187   50
        division   0.4416  110
        division   0.6335  194
        division   0.7727  302
        division   0.8772  434
  #      division   0.9334  590
  #      division   0.9924  770
  #      division   1.0230  974
  #      division   1.5020 1202
  #     outer_grid  974
        outer_grid  434
  ################################################################################
  #
  #  Definition of "minimal" basis
  #
  ################################################################################
  #     valence basis states
      valence      2  s   2.
      valence      2  p   2.
  #     ion occupancy
      ion_occ      2  s   1.
      ion_occ      2  p   1.
  ################################################################################
  #
  #  Suggested additional basis functions. For production calculations,
  #  uncomment them one after another (the most important basis functions are
  #  listed first).
  #
  #  Constructed for dimers: 1.0 A, 1.25 A, 1.5 A, 2.0 A, 3.0 A
  #
  ################################################################################
  #  "First tier" - improvements: -1214.57 meV to -155.61 meV
       hydro 2 p 1.7
       hydro 3 d 6
       hydro 2 s 4.9
  #  "Second tier" - improvements: -67.75 meV to -5.23 meV
       hydro 4 f 9.8
       hydro 3 p 5.2
       hydro 3 s 4.3
       hydro 5 g 14.4
       hydro 3 d 6.2
  #  "Third tier" - improvements: -2.43 meV to -0.60 meV
  #     hydro 2 p 5.6
  #     hydro 2 s 1.4
  #     hydro 3 d 4.9
  #     hydro 4 f 11.2
  #  "Fourth tier" - improvements: -0.39 meV to -0.18 meV
  #     hydro 2 p 2.1
  #     hydro 5 g 16.4
  #     hydro 4 d 13.2
  #     hydro 3 s 13.6
  #     hydro 4 f 17.6
  #  Further basis functions - improvements: -0.08 meV and below
  #     hydro 3 s 2
  #     hydro 3 p 6
  #     hydro 4 d 20
  ################################################################################
  #
  # For methods that use the localized form of the "resolution of identity" for
  # the two-electron Coulomb operator (RI_method LVL), particularly Hartree-Fock and
  # hybrid density functional calculations, the highest accuracy can be obtained by
  # uncommenting the line beginning with "for_aux"  below, thus adding an extra g radial
  # function to the construction of the product basis set for the expansion.
  # See Ref. New J. Phys. 17, 093020 (2015) for more information, particularly Figs. 1 and 6.
  #
  ################################################################################
  #
  # for_aux hydro 5 g 6.0
  
  -----------------------------------------------------------------------
  Completed first pass over input file control.in .
  -----------------------------------------------------------------------
  
  
  -----------------------------------------------------------------------
  Parsing geometry.in (first pass over file, find array dimensions only).
  The contents of geometry.in will be repeated verbatim below
  unless switched off by setting 'verbatim_writeout .false.' .
  in the first line of geometry.in .
  -----------------------------------------------------------------------
  
  #=======================================================
  # FHI-aims file: geometry.in
  # Created using the Atomic Simulation Environment (ASE)
  # Sun Jun 20 15:47:01 2021
  #=======================================================
  atom 20.5750269999999986 29.4039649999999995 34.8440209999999979 H
  atom 20.1653769999999994 29.2440050000000014 33.8497460000000032 C
  atom 19.8712400000000002 27.9568030000000007 33.4104889999999983 C
  atom 20.0107770000000009 30.3056030000000014 32.9943299999999979 C
  atom 19.4645240000000008 27.7384559999999993 32.1153970000000015 C
  atom 20.0202910000000003 27.1094790000000003 34.0783320000000032 H
  atom 19.5445990000000016 30.1270370000000014 31.6729219999999998 C
  atom 20.3281430000000007 31.2976670000000006 33.3067640000000011 H
  atom 19.3524190000000011 26.7169580000000018 31.7648879999999991 H
  atom 19.3004099999999994 28.8106270000000002 31.2048300000000012 C
  atom 19.4764160000000004 31.2358790000000006 30.7522750000000009 C
  atom 19.1045839999999991 28.5972250000000017 29.7833359999999985 C
  atom 19.2227139999999999 32.6002579999999966 31.1610160000000000 C
  atom 19.6254659999999994 30.9687249999999992 29.3915329999999990 C
  atom 18.6122419999999984 27.3571519999999992 29.2172580000000011 C
  atom 19.4732449999999986 29.6200100000000006 28.9044039999999995 C
  atom 18.5797370000000015 32.8924260000000004 32.3844380000000029 C
  atom 19.4676949999999991 33.6577959999999976 30.2489080000000001 C
  atom 19.9513150000000010 32.0376940000000019 28.4826450000000015 C
  atom 17.7583750000000009 26.5001269999999991 29.9352139999999984 C
  atom 18.9055859999999996 27.0478169999999984 27.8553959999999989 C
  atom 19.6896850000000008 29.3346049999999998 27.5092260000000017 C
  atom 18.3054209999999991 32.0709540000000004 33.0403829999999985 H
  atom 18.2063179999999996 34.1713809999999967 32.7122710000000012 C
  atom 19.0221300000000006 34.9556520000000006 30.5946579999999990 C
  atom 20.0416969999999992 33.3545930000000013 28.9522769999999987 C
  atom 20.1677549999999997 31.7522890000000011 27.0874670000000002 C
  atom 17.2588989999999995 25.3475940000000008 29.3814540000000015 C
  atom 17.4374420000000008 26.7937690000000011 30.9308890000000005 H
  atom 18.3577469999999998 25.8595840000000017 27.3173139999999997 C
  atom 19.5993029999999990 28.0177060000000004 27.0395940000000010 C
  atom 20.0155339999999988 30.4035739999999990 26.6003380000000007 C
  atom 17.6848010000000002 34.3581489999999974 33.6504150000000024 H
  atom 18.4211729999999996 35.2070239999999970 31.8024030000000018 C
  atom 19.0968139999999984 35.7564980000000006 29.8650839999999995 H
  atom 20.7354139999999987 34.3244820000000033 28.1364750000000008 C
  atom 20.5364159999999991 32.7750739999999965 26.2085350000000012 C
  atom 16.5866669999999985 24.7136020000000016 29.9563510000000015 H
  atom 17.5807840000000013 25.0156600000000005 28.0625660000000003 C
  atom 18.5094139999999996 25.6431779999999989 26.2638269999999991 H
  atom 20.1733049999999992 27.7145030000000006 25.7429629999999996 C
  atom 20.1645840000000014 30.1364200000000011 25.2395959999999988 C
  atom 18.0626590000000000 36.2128200000000007 32.0199309999999997 H
  atom 21.0287579999999998 34.0151469999999989 26.7746129999999987 C
  atom 21.2832529999999984 35.5127150000000000 28.6745570000000001 C
  atom 20.3405899999999988 32.5616720000000015 24.7870409999999985 C
  atom 17.1669310000000017 24.1152680000000004 27.6132309999999990 H
  atom 20.6188700000000011 26.4166470000000011 25.3972130000000007 C
  atom 20.4182859999999984 28.7720410000000015 24.8308549999999997 C
  atom 20.0964010000000002 31.2452620000000003 24.3189489999999999 C
  atom 21.8826250000000009 34.8721719999999991 26.0566570000000013 C
  atom 21.1315859999999986 35.7291209999999992 29.7280440000000006 H
  atom 22.0602170000000015 36.3566390000000013 27.9293049999999994 C
  atom 20.1764760000000010 33.6338429999999988 23.8764740000000018 C
  atom 20.5441859999999998 25.6158010000000012 26.1267870000000002 H
  atom 21.2198269999999987 26.1652750000000012 24.1894680000000015 C
  atom 21.0612630000000003 28.4798730000000013 23.6074330000000003 C
  atom 19.6302230000000009 31.0666960000000003 22.9975409999999982 C
  atom 22.2035580000000010 34.5785300000000007 25.0609819999999992 H
  atom 22.3821009999999987 36.0247049999999973 26.6104170000000018 C
  atom 22.4740690000000001 37.2570309999999978 28.3786400000000008 H
  atom 19.7697600000000016 33.4154959999999974 22.5813820000000014 C
  atom 20.2885810000000006 34.6553410000000000 24.2269830000000006 H
  atom 21.5783410000000018 25.1594790000000010 23.9719400000000000 H
  atom 21.4346819999999987 27.2009180000000015 23.2795999999999985 C
  atom 21.3355789999999992 29.3013450000000013 22.9514880000000012 H
  atom 19.3128570000000011 30.0746320000000011 22.6851069999999986 H
  atom 19.4756229999999988 32.1282939999999968 22.1421250000000001 C
  atom 23.0543329999999997 36.6586969999999965 26.0355200000000018 H
  atom 19.6207090000000015 34.2628199999999978 21.9135390000000001 H
  atom 21.9561990000000016 27.0141500000000008 22.3414560000000009 H
  atom 19.0659729999999996 31.9683339999999987 21.1478499999999983 H
  
  -----------------------------------------------------------------------
  Completed first pass over input file geometry.in .
  -----------------------------------------------------------------------
  

  Basic array size parameters:
  | Number of species                 :        2
  | Number of atoms                   :       72
  | Max. basis fn. angular momentum   :        4
  | Max. atomic/ionic basis occupied n:        2
  | Max. number of basis fn. types    :        2
  | Max. radial fns per species/type  :        8
  | Max. logarithmic grid size        :     1277
  | Max. radial integration grid size :       69
  | Max. angular integration grid size:      434
  | Max. angular grid division number :        8
  | Radial grid for Hartree potential :     1277
  | Number of spin channels           :        1

------------------------------------------------------------
          Reading file control.in.
------------------------------------------------------------
  XC: Using PBE gradient-corrected functionals.
  Scalar relativistic treatment of kinetic energy: ZORA.
  Threshold value for ZORA:   0.100000E-11
  Occupation type: Gaussian broadening, width =   0.100000E-03 eV.
  Since 'load_balancing .true.' is present in control.in, automatically turning on 'use_local_index .true.'.
  Using load balancing for integrations.
  Kohn-Sham electronic structure solved by the ELSI library.
  Using pulay charge density mixing.
  Pulay mixing - number of memorized iterations:    5
  Charge density mixing - mixing parameter:     0.4000
  Convergence accuracy of total energy:  0.1000E-05
  Convergence accuracy of sum of eigenvalues:  0.1000E-03
  Convergence accuracy of self-consistent charge density:  0.1000E-05
  Maximum number of s.-c. iterations  :   100
  * Ignoring prodbas_threshold
  Threshold for basis singularities:  0.1000E-04
  override_illconditioning: Explicitly overriding any built-in checks for an ill-conditioned overlap matrix.
  *** WARNING: If you use this flag, you should really know what you are doing.
  *** DO NOT keep this flag set by default in all your control.in files.
  Using 1D integrations for auxiliary 2-center integrals.
  Spin treatment: No spin polarisation.
  Charge =   0.000000E+00: Neutral system requested explicitly.
 
  Reading configuration options for species H                   .
  | Found nuclear charge :   1.0000
  | Found atomic mass :    1.00794000000000      amu
  | Found l_max for Hartree potential  :   6
  | Found cutoff potl. onset [A], width [A], scale factor :    4.00000    2.00000    1.00000
  | Threshold for basis-dependent cutoff potential is   0.100000E-03
  | Found data for basic radial integration grid :    24 points, outermost radius =    7.000 A
  | Found multiplier for basic radial grid :   2
  | Found angular grid specification: user-specified.
  | Specified grid contains     6 separate shells.
  | Check grid settings after all constraints further below.
  | Found free-atom valence shell :  1 s   1.000
  | No ionic wave fns used. Skipping ion_occ.
  | Found hydrogenic basis function :  2 s   2.100
  | Found hydrogenic basis function :  2 p   3.500
  | Found hydrogenic basis function :  1 s   0.850
  | Found hydrogenic basis function :  2 p   3.700
  | Found hydrogenic basis function :  2 s   1.200
  | Found hydrogenic basis function :  3 d   7.000
  Species H                   : Missing cutoff potential type.
  Defaulting to exp(1/x)/(1-x)^2 type cutoff potential.
  Species H : No 'logarithmic' tag. Using default grid for free atom:
  | Default logarithmic grid data [bohr] : 0.1000E-03 0.1000E+03 0.1012E+01
  Species H : On-site basis accuracy parameter (for Gram-Schmidt orthonormalisation) not specified.
  Using default value basis_acc =  0.1000000E-03.
  Species H                   : Using default innermost maximum threshold i_radial=  2 for radial functions.
  Species H                   : Default cutoff onset for free atom density etc. : 0.40000000E+01 AA.
  Species H                   : Basic radial grid will be enhanced according to radial_multiplier =   2, to contain    49 grid points.
 
  Reading configuration options for species C                   .
  | Found nuclear charge :   6.0000
  | Found atomic mass :    12.0107000000000      amu
  | Found l_max for Hartree potential  :   6
  | Found cutoff potl. onset [A], width [A], scale factor :    4.00000    2.00000    1.00000
  | Threshold for basis-dependent cutoff potential is   0.100000E-03
  | Found data for basic radial integration grid :    34 points, outermost radius =    7.000 A
  | Found multiplier for basic radial grid :   2
  | Found angular grid specification: user-specified.
  | Specified grid contains     6 separate shells.
  | Check grid settings after all constraints further below.
  | Found free-atom valence shell :  2 s   2.000
  | Found free-atom valence shell :  2 p   2.000
  | No ionic wave fns used. Skipping ion_occ.
  | No ionic wave fns used. Skipping ion_occ.
  | Found hydrogenic basis function :  2 p   1.700
  | Found hydrogenic basis function :  3 d   6.000
  | Found hydrogenic basis function :  2 s   4.900
  | Found hydrogenic basis function :  4 f   9.800
  | Found hydrogenic basis function :  3 p   5.200
  | Found hydrogenic basis function :  3 s   4.300
  | Found hydrogenic basis function :  5 g  14.400
  | Found hydrogenic basis function :  3 d   6.200
  Species C                   : Missing cutoff potential type.
  Defaulting to exp(1/x)/(1-x)^2 type cutoff potential.
  Species C : No 'logarithmic' tag. Using default grid for free atom:
  | Default logarithmic grid data [bohr] : 0.1000E-03 0.1000E+03 0.1012E+01
  Species C : On-site basis accuracy parameter (for Gram-Schmidt orthonormalisation) not specified.
  Using default value basis_acc =  0.1000000E-03.
  Species C                   : Using default innermost maximum threshold i_radial=  2 for radial functions.
  Species C                   : Default cutoff onset for free atom density etc. : 0.40000000E+01 AA.
  Species C                   : Basic radial grid will be enhanced according to radial_multiplier =   2, to contain    69 grid points.
 
  Finished reading input file 'control.in'. Consistency checks are next.
 
  MPI_IN_PLACE appears to work with this MPI implementation.
  | Keeping use_mpi_in_place .true. (see manual).
  Target number of points in a grid batch is not set. Defaulting to  100
  Method for grid partitioning is not set. Defaulting to parallel hash+maxmin partitioning.
  Batch size limit is not set. Defaulting to    200
  By default, will store active basis functions for each batch.
  If in need of memory, prune_basis_once .false. can be used to disable this option.
  communication_type for Hartree potential was not specified.
  Defaulting to calc_hartree .
  Pulay mixer: Number of initial linear mixing iterations not set.
  Defaulting to    0 iterations.
  Work space size for distributed Hartree potential not set.
  Defaulting to   0.200000E+03 MB.
  Algorithm-dependent basis array size parameters:
  | n_max_pulay                         :        5
  Presetting      1001 iterations before the initial mixing cycle
  is restarted anyway using the sc_init_iter criterion / keyword.
  Presetting a factor      1.000 between actual scf density residual
  and density convergence criterion sc_accuracy_rho below which sc_init_iter
  takes no effect.
  Calculation of forces was not defined in control.in. No forces will be calculated.
  Geometry relaxation not requested: no relaxation will be performed.
  No accuracy limit for integral partition fn. given. Defaulting to  0.1000E-14.
  No threshold value for u(r) in integrations given. Defaulting to  0.1000E-05.
  No accuracy for occupation numbers given. Defaulting to  0.1000E-12.
  No threshold value for occupation numbers given. Defaulting to  0.0000E+00.
  No accuracy for fermi level given. Defaulting to  0.1000E-19.
  Maximum # of iterations to find E_F not set. Defaulting to  200.
  Will not use alltoall communication since running on < 1024 CPUs.
  partition_type (choice of integration weights) for integrals was not specified.
  | Using a version of the partition function of Stratmann and coworkers ('stratmann_sparse').
  | At each grid point, the set of atoms used to build the partition table is smoothly restricted to
  | only those atoms whose free-atom density would be non-zero at that grid point.
  Partitioning for Hartree potential was not defined. Using partition_type for integrals.
  | Adjusted default value of keyword multip_moments_threshold to:       0.10000000E-11
  | This value may affect high angular momentum components of the Hartree potential in periodic systems.
  No q(lm)/r^(l+1) cutoff set for long-range Hartree potential.
  | Using default value of  0.100000E-09 .
  | Verify using the multipole_threshold keyword.
  Defaulting to new monopole extrapolation.
  Density update method: automatic selection selected.
 * Warning: use_local_index and/or load_balancing needs packed_matrix_format = index
 * Changing the default setting to packed_matrix_format = index
------------------------------------------------------------


------------------------------------------------------------
          Reading geometry description geometry.in.
------------------------------------------------------------
  Input structure read successfully.
  The structure contains       72 atoms,  and a total of        312.000 electrons.

  Input geometry:
  | No unit cell requested.
  | Atomic structure:
  |       Atom                x [A]            y [A]            z [A]
  |    1: Species H            20.57502700       29.40396500       34.84402100
  |    2: Species C            20.16537700       29.24400500       33.84974600
  |    3: Species C            19.87124000       27.95680300       33.41048900
  |    4: Species C            20.01077700       30.30560300       32.99433000
  |    5: Species C            19.46452400       27.73845600       32.11539700
  |    6: Species H            20.02029100       27.10947900       34.07833200
  |    7: Species C            19.54459900       30.12703700       31.67292200
  |    8: Species H            20.32814300       31.29766700       33.30676400
  |    9: Species H            19.35241900       26.71695800       31.76488800
  |   10: Species C            19.30041000       28.81062700       31.20483000
  |   11: Species C            19.47641600       31.23587900       30.75227500
  |   12: Species C            19.10458400       28.59722500       29.78333600
  |   13: Species C            19.22271400       32.60025800       31.16101600
  |   14: Species C            19.62546600       30.96872500       29.39153300
  |   15: Species C            18.61224200       27.35715200       29.21725800
  |   16: Species C            19.47324500       29.62001000       28.90440400
  |   17: Species C            18.57973700       32.89242600       32.38443800
  |   18: Species C            19.46769500       33.65779600       30.24890800
  |   19: Species C            19.95131500       32.03769400       28.48264500
  |   20: Species C            17.75837500       26.50012700       29.93521400
  |   21: Species C            18.90558600       27.04781700       27.85539600
  |   22: Species C            19.68968500       29.33460500       27.50922600
  |   23: Species H            18.30542100       32.07095400       33.04038300
  |   24: Species C            18.20631800       34.17138100       32.71227100
  |   25: Species C            19.02213000       34.95565200       30.59465800
  |   26: Species C            20.04169700       33.35459300       28.95227700
  |   27: Species C            20.16775500       31.75228900       27.08746700
  |   28: Species C            17.25889900       25.34759400       29.38145400
  |   29: Species H            17.43744200       26.79376900       30.93088900
  |   30: Species C            18.35774700       25.85958400       27.31731400
  |   31: Species C            19.59930300       28.01770600       27.03959400
  |   32: Species C            20.01553400       30.40357400       26.60033800
  |   33: Species H            17.68480100       34.35814900       33.65041500
  |   34: Species C            18.42117300       35.20702400       31.80240300
  |   35: Species H            19.09681400       35.75649800       29.86508400
  |   36: Species C            20.73541400       34.32448200       28.13647500
  |   37: Species C            20.53641600       32.77507400       26.20853500
  |   38: Species H            16.58666700       24.71360200       29.95635100
  |   39: Species C            17.58078400       25.01566000       28.06256600
  |   40: Species H            18.50941400       25.64317800       26.26382700
  |   41: Species C            20.17330500       27.71450300       25.74296300
  |   42: Species C            20.16458400       30.13642000       25.23959600
  |   43: Species H            18.06265900       36.21282000       32.01993100
  |   44: Species C            21.02875800       34.01514700       26.77461300
  |   45: Species C            21.28325300       35.51271500       28.67455700
  |   46: Species C            20.34059000       32.56167200       24.78704100
  |   47: Species H            17.16693100       24.11526800       27.61323100
  |   48: Species C            20.61887000       26.41664700       25.39721300
  |   49: Species C            20.41828600       28.77204100       24.83085500
  |   50: Species C            20.09640100       31.24526200       24.31894900
  |   51: Species C            21.88262500       34.87217200       26.05665700
  |   52: Species H            21.13158600       35.72912100       29.72804400
  |   53: Species C            22.06021700       36.35663900       27.92930500
  |   54: Species C            20.17647600       33.63384300       23.87647400
  |   55: Species H            20.54418600       25.61580100       26.12678700
  |   56: Species C            21.21982700       26.16527500       24.18946800
  |   57: Species C            21.06126300       28.47987300       23.60743300
  |   58: Species C            19.63022300       31.06669600       22.99754100
  |   59: Species H            22.20355800       34.57853000       25.06098200
  |   60: Species C            22.38210100       36.02470500       26.61041700
  |   61: Species H            22.47406900       37.25703100       28.37864000
  |   62: Species C            19.76976000       33.41549600       22.58138200
  |   63: Species H            20.28858100       34.65534100       24.22698300
  |   64: Species H            21.57834100       25.15947900       23.97194000
  |   65: Species C            21.43468200       27.20091800       23.27960000
  |   66: Species H            21.33557900       29.30134500       22.95148800
  |   67: Species H            19.31285700       30.07463200       22.68510700
  |   68: Species C            19.47562300       32.12829400       22.14212500
  |   69: Species H            23.05433300       36.65869700       26.03552000
  |   70: Species H            19.62070900       34.26282000       21.91353900
  |   71: Species H            21.95619900       27.01415000       22.34145600
  |   72: Species H            19.06597300       31.96833400       21.14785000
  |

  | The smallest distance between any two atoms is         1.08576344 AA.
  |
  | The first atom of this pair is atom number                      5 .
  | The second atom of this pair is atom number                     9 .

  Number of empty states per atom not set in control.in - providing a guess from actual geometry.
  | Total number of empty states used during s.c.f. cycle:      180
  If you use a very high smearing, use empty_states (per atom!) in control.in to increase this value.

  Structure-dependent array size parameters: 
  | Maximum number of distinct radial functions  :       18
  | Maximum number of basis functions            :     2232
  | Number of Kohn-Sham states (occupied + empty):      336
------------------------------------------------------------

------------------------------------------------------------
          Preparing all fixed parts of the calculation.
------------------------------------------------------------
  Determining machine precision:
    2.225073858507201E-308
  Setting up grids for atomic and cluster calculations.

  Creating wave function, potential, and density for free atoms.

  Species: H

  List of occupied orbitals and eigenvalues:
    n    l              occ      energy [Ha]    energy [eV]
    1    0           1.0000        -0.238386        -6.4868


  Species: C

  List of occupied orbitals and eigenvalues:
    n    l              occ      energy [Ha]    energy [eV]
    1    0           2.0000       -10.049212      -273.4530
    2    0           2.0000        -0.504761       -13.7352
    2    1           2.0000        -0.193631        -5.2690

  Creating fixed part of basis set: Ionic, confined, hydrogenic.
 
  H                    hydrogenic:
 
  List of hydrogenic basis orbitals: 
    n    l      effective z      eigenvalue [eV]  inner max. [A]     outer max. [A]     outer radius [A]   
    2    0         2.100000       -14.9965           0.193243           1.317208           5.373006
    2    1         3.500000       -41.6672           0.602369           0.602369           4.056063
    1    0         0.850000        -9.8292           0.624871           0.624871           5.373006
    2    1         3.700000       -46.5653           0.573622           0.573622           3.910002
    2    0         1.200000        -4.5995           0.334980           2.228188           5.505995
    3    2         7.000000       -74.0753           0.680699           0.680699           3.769201
 
 
  C                    hydrogenic:
 
  List of hydrogenic basis orbitals: 
    n    l      effective z      eigenvalue [eV]  inner max. [A]     outer max. [A]     outer radius [A]   
    2    1         1.700000        -9.8152           1.245706           1.245706           5.401630
    3    2         6.000000       -54.4226           0.792453           0.792453           4.178599
    2    0         4.900000       -81.6681           0.082559           0.562749           3.353238
    4    3         9.800000       -81.6681           0.863254           0.863254           4.028125
    3    1         5.200000       -40.8774           0.305389           1.215618           4.898362
    3    0         4.300000       -27.9508           0.091041           1.610311           5.401630
    5    4        14.400000      -112.8510           0.917666           0.917666           3.883070
    3    2         6.200000       -58.1113           0.763917           0.763917           4.077671
 

  Adding cutoff potential to free-atom effective potential.
  Creating atomic-like basis functions for current effective potential.

  Species H                   :

  List of atomic basis orbitals and eigenvalues:
    n    l      energy [Ha]    energy [eV]    outer radius [A]
    1    0        -0.238386        -6.4868       5.373006


  Species C                   :

  List of atomic basis orbitals and eigenvalues:
    n    l      energy [Ha]    energy [eV]    outer radius [A]
    1    0       -10.049212      -273.4530       1.934409
    2    0        -0.504761       -13.7352       5.271162
    2    1        -0.193631        -5.2690       5.401630

  Assembling full basis from fixed parts.
  | Species H :   atomic orbital   1 s accepted.
  | Species H :    hydro orbital   2 s accepted.
  | Species H :    hydro orbital   1 s accepted.
  | Species H :    hydro orbital   2 s accepted.
  | Species H :    hydro orbital   2 p accepted.
  | Species H :    hydro orbital   2 p accepted.
  | Species H :    hydro orbital   3 d accepted.
  | Species C :   atomic orbital   1 s accepted.
  | Species C :    hydro orbital   2 s accepted.
  | Species C :   atomic orbital   2 s accepted.
  | Species C :    hydro orbital   3 s accepted.
  | Species C :    hydro orbital   3 p accepted.
  | Species C :   atomic orbital   2 p accepted.
  | Species C :    hydro orbital   2 p accepted.
  | Species C :    hydro orbital   3 d accepted.
  | Species C :    hydro orbital   3 d accepted.
  | Species C :    hydro orbital   4 f accepted.
  | Species C :    hydro orbital   5 g accepted.
 
  Basis size parameters after reduction:
  | Total number of radial functions:       18
  | Total number of basis functions :     2232
 
  Per-task memory consumption for arrays in subroutine allocate_ext:
  |           4.464856MB.
  Testing on-site integration grid accuracy.
  |  Species  Function  <phi|h_atom|phi> (log., in eV)  <phi|h_atom|phi> (rad., in eV)
           1        1                 -6.4870767962                 -6.4871688290
           1        2                 13.5032046589                 13.5028982997
           1        3                 32.8195184817                 32.8119941656
           1        4                 33.8513856511                 33.7670005767 ***
           1        5                 28.8544614965                 28.8544615203
           1        6                 59.6326952547                 59.6327656460
           1        7                 60.2719308513                 60.2719305949
           2        8               -273.4529726040               -273.4529710464
           2        9                -10.7721037319                -10.7721022101
           2       10                 17.6044132601                 17.6044162063
           2       11                 53.7706460658                 53.7706913770
           2       12                 15.0973290362                 15.0973256030
           2       13                  3.8545134692                  3.8545724687
           2       14                 12.1156992592                 12.1182024431
           2       15                 29.4352039302                 29.4352041816
           2       16                 54.8741144708                 54.8740268729
           2       17                 59.3556032049                 59.3556031382
           2       18                 93.4551837154                 93.4551838009
 * Note: Onsite integrals marked "***" above are less accurate than
 * onsite_accuracy_threshold =    0.03000 eV. Usually, this is harmless.
 * When in doubt, tighten the "radial" and/or "radial_multiplier" flags to check.

  Preparing densities etc. for the partition functions (integrals / Hartree potential).

  Preparations completed.
  max(cpu_time)          :      0.217 s.
  Wall clock time (cpu1) :      0.216 s.
------------------------------------------------------------

------------------------------------------------------------
          Begin self-consistency loop: Initialization.

          Date     :  20210620, Time     :  170121.938
------------------------------------------------------------

  Initializing index lists of integration centers etc. from given atomic structure:
  | Number of centers in hartree potential         :        72
  | Number of centers in hartree multipole         :        72
  | Number of centers in electron density summation:        72
  | Number of centers in basis integrals           :        72
  | Number of centers in integrals                 :        72
  | Number of centers in hamiltonian               :        72
  * Using 56 tasks for Scalapack Eigenvalue solver.
  Detailed listing of tasks and assigned k-points:
  (for non-periodic systems, the "k-point" denotes an internal label only)
   Task     0 k-point     1 on d021
   Task     1 k-point     1 on d021
   Task     2 k-point     1 on d021
   Task     3 k-point     1 on d021
   Task     4 k-point     1 on d021
   Task     5 k-point     1 on d021
   Task     6 k-point     1 on d021
   Task     7 k-point     1 on d021
   Task     8 k-point     1 on d021
   Task     9 k-point     1 on d021
   Task    10 k-point     1 on d021
   Task    11 k-point     1 on d021
   Task    12 k-point     1 on d021
   Task    13 k-point     1 on d021
   Task    14 k-point     1 on d021
   Task    15 k-point     1 on d021
   Task    16 k-point     1 on d021
   Task    17 k-point     1 on d021
   Task    18 k-point     1 on d021
   Task    19 k-point     1 on d021
   Task    20 k-point     1 on d021
   Task    21 k-point     1 on d021
   Task    22 k-point     1 on d021
   Task    23 k-point     1 on d021
   Task    24 k-point     1 on d021
   Task    25 k-point     1 on d021
   Task    26 k-point     1 on d021
   Task    27 k-point     1 on d021
   Task    28 k-point     1 on d021
   Task    29 k-point     1 on d021
   Task    30 k-point     1 on d021
   Task    31 k-point     1 on d021
   Task    32 k-point     1 on d021
   Task    33 k-point     1 on d021
   Task    34 k-point     1 on d021
   Task    35 k-point     1 on d021
   Task    36 k-point     1 on d021
   Task    37 k-point     1 on d021
   Task    38 k-point     1 on d021
   Task    39 k-point     1 on d021
   Task    40 k-point     1 on d021
   Task    41 k-point     1 on d021
   Task    42 k-point     1 on d021
   Task    43 k-point     1 on d021
   Task    44 k-point     1 on d021
   Task    45 k-point     1 on d021
   Task    46 k-point     1 on d021
   Task    47 k-point     1 on d021
   Task    48 k-point     1 on d021
   Task    49 k-point     1 on d021
   Task    50 k-point     1 on d021
   Task    51 k-point     1 on d021
   Task    52 k-point     1 on d021
   Task    53 k-point     1 on d021
   Task    54 k-point     1 on d021
   Task    55 k-point     1 on d021
  Tasks:    56 split into      8 X      7 BLACS grid
  Calculating block size based on n_basis =         2232 max_nprow =            8 max_npcol =            7
  ScaLAPACK block size set to:           16
  Allocating        0.737 MB for ovlp
  Allocating        0.737 MB for ham
  Allocating        0.737 MB for eigenvec
  Required Scalapack workspace - INTEGER:            1 REAL:             1
  Partitioning the integration grid into batches with parallel hashing+maxmin method.
  | Number of batches:    11137
  | Maximal batch size:     200
  | Minimal batch size:       8
  | Average batch size:     109.055
  | Standard deviation of batch sizes:      33.598

  Integration load balanced across     56 MPI tasks.
  Work distribution over tasks is as follows:
  Task      0 has      21780 integration points.
  Task      1 has      21673 integration points.
  Task      2 has      21672 integration points.
  Task      3 has      21821 integration points.
  Task      4 has      21607 integration points.
  Task      5 has      21691 integration points.
  Task      6 has      21635 integration points.
  Task      7 has      21757 integration points.
  Task      8 has      21781 integration points.
  Task      9 has      21558 integration points.
  Task     10 has      21750 integration points.
  Task     11 has      21707 integration points.
  Task     12 has      21704 integration points.
  Task     13 has      21587 integration points.
  Task     14 has      21729 integration points.
  Task     15 has      21726 integration points.
  Task     16 has      21715 integration points.
  Task     17 has      21726 integration points.
  Task     18 has      21633 integration points.
  Task     19 has      21709 integration points.
  Task     20 has      21620 integration points.
  Task     21 has      21708 integration points.
  Task     22 has      21692 integration points.
  Task     23 has      21654 integration points.
  Task     24 has      21822 integration points.
  Task     25 has      21662 integration points.
  Task     26 has      21710 integration points.
  Task     27 has      21520 integration points.
  Task     28 has      21699 integration points.
  Task     29 has      21793 integration points.
  Task     30 has      21589 integration points.
  Task     31 has      21813 integration points.
  Task     32 has      21630 integration points.
  Task     33 has      21670 integration points.
  Task     34 has      21648 integration points.
  Task     35 has      21725 integration points.
  Task     36 has      21710 integration points.
  Task     37 has      21630 integration points.
  Task     38 has      21741 integration points.
  Task     39 has      21663 integration points.
  Task     40 has      21775 integration points.
  Task     41 has      21573 integration points.
  Task     42 has      21752 integration points.
  Task     43 has      21786 integration points.
  Task     44 has      21645 integration points.
  Task     45 has      21797 integration points.
  Task     46 has      21598 integration points.
  Task     47 has      21690 integration points.
  Task     48 has      21558 integration points.
  Task     49 has      21799 integration points.
  Task     50 has      21813 integration points.
  Task     51 has      21558 integration points.
  Task     52 has      21663 integration points.
  Task     53 has      21642 integration points.
  Task     54 has      21644 integration points.
  Task     55 has      21591 integration points.
  Initializing partition tables, free-atom densities, potentials, etc. across the integration grid (initialize_grid_storage).
  | initialize_grid_storage: Actual outermost partition radius vs. multipole_radius_free
  | (-- VB: in principle, multipole_radius_free should be larger, hence this output)
  | Species        1: Confinement radius =              6.000000000000000 AA, multipole_radius_free =              6.071692442739658 AA.
  | Species        1: outer_partition_radius set to              6.071692442739658 AA .
  | Species        2: Confinement radius =              6.000000000000000 AA, multipole_radius_free =              6.029870734432609 AA.
  | Species        2: outer_partition_radius set to              6.029870734432609 AA .
  | The sparse table of interatomic distances needs     61.6360 kbyte instead of    41.4720 kbyte of memory.
  | Using the partition_type stratmann_smoother will reduce your memory usage.
  | Net number of integration points:  1214544
  | of which are non-zero points    :   957257
  Renormalizing the initial density to the exact electron count on the 3D integration grid.
  | Initial density: Formal number of electrons (from input files) :     312.0000000000
  | Integrated number of electrons on 3D grid     :     312.0001660360
  | Charge integration error                      :       0.0001660360
  | Normalization factor for density and gradient :       0.9999994678
  Obtaining max. number of non-zero basis functions in each batch (get_n_compute_maxes).
  | Maximal number of non-zero basis functions:     1129
  Selecting the method for density update.
  Loop over occupied states selected for charge density update.
  Hamiltonian matrix size:
  | Size of matrix non-packed:               2492028
  | Size of matrix packed:         2004267
  Allocating        6.000 MB for KS_eigenvector
  use_local_index: Max. local matrix size =      1306100
  Task:     0 matrix size:     414717
  Task:     1 matrix size:     475902
  Task:     2 matrix size:     852157
  Task:     3 matrix size:     375550
  Task:     4 matrix size:     481738
  Task:     5 matrix size:    1215713
  Task:     6 matrix size:    1254453
  Task:     7 matrix size:     171991
  Task:     8 matrix size:     331527
  Task:     9 matrix size:     474555
  Task:    10 matrix size:     573772
  Task:    11 matrix size:     497492
  Task:    12 matrix size:    1269980
  Task:    13 matrix size:    1151572
  Task:    14 matrix size:     322340
  Task:    15 matrix size:     261726
  Task:    16 matrix size:     213368
  Task:    17 matrix size:    1269035
  Task:    18 matrix size:    1253742
  Task:    19 matrix size:     873871
  Task:    20 matrix size:     858929
  Task:    21 matrix size:     561733
  Task:    22 matrix size:    1282417
  Task:    23 matrix size:    1142470
  Task:    24 matrix size:     337901
  Task:    25 matrix size:     398194
  Task:    26 matrix size:     534777
  Task:    27 matrix size:     234270
  Task:    28 matrix size:     234270
  Task:    29 matrix size:    1045267
  Task:    30 matrix size:    1214103
  Task:    31 matrix size:     398194
  Task:    32 matrix size:     335564
  Task:    33 matrix size:     889111
  Task:    34 matrix size:     538963
  Task:    35 matrix size:     714405
  Task:    36 matrix size:    1276801
  Task:    37 matrix size:    1306100
  Task:    38 matrix size:     398907
  Task:    39 matrix size:     187799
  Task:    40 matrix size:     530980
  Task:    41 matrix size:     209549
  Task:    42 matrix size:    1176017
  Task:    43 matrix size:     847215
  Task:    44 matrix size:     401173
  Task:    45 matrix size:     589053
  Task:    46 matrix size:     349664
  Task:    47 matrix size:     208335
  Task:    48 matrix size:     269354
  Task:    49 matrix size:    1175480
  Task:    50 matrix size:     624437
  Task:    51 matrix size:     287500
  Task:    52 matrix size:     959431
  Task:    53 matrix size:     528286
  Task:    54 matrix size:     553409
  Task:    55 matrix size:     469659
  Integrating Hamiltonian matrix: batch-based integration.
  Time summed over all CPUs for integration: real work      276.007 s, elapsed      529.672 s
  Time get_set_sparse_local_matrix_scalapack:     0.028642 s
  Start compute_balanced_batch_distribution
  Done load balancing, time needed:      0.013 s
  Integrating overlap matrix with loadbalancing
  Time summed over all CPUs for integration: real work       81.378 s, elapsed       94.965 s
  Time get_set_full_local_matrix_scalapack:     0.031806 s

  Updating Kohn-Sham eigenvalues and eigenvectors using ELSI and the ELPA eigensolver.
  Overlap matrix is not singular
  | Lowest and highest eigenvalues :  0.12E+02,  0.84E-04
  Finished singularity check of overlap matrix
  | Time :     0.202 s
  Finished Cholesky decomposition
  | Time :     0.039 s
  Finished transformation to standard eigenproblem
  | Time :     0.057 s
  Starting ELPA eigensolver
  Finished solving standard eigenproblem
  | Time :     0.205 s
  Finished back-transformation of eigenvectors
  | Time :     0.009 s

  Obtaining occupation numbers and chemical potential using ELSI.
  | Chemical potential (Fermi level):    -7.89643817 eV
  Writing Kohn-Sham eigenvalues.

  State    Occupation    Eigenvalue [Ha]    Eigenvalue [eV]
      1       2.00000         -10.173813         -276.84353
      2       2.00000         -10.173813         -276.84353
      3       2.00000         -10.173497         -276.83494
      4       2.00000         -10.173497         -276.83494
      5       2.00000         -10.173101         -276.82417
      6       2.00000         -10.173101         -276.82417
      7       2.00000         -10.173049         -276.82274
      8       2.00000         -10.173049         -276.82274
      9       2.00000         -10.172711         -276.81356
     10       2.00000         -10.172711         -276.81356
     11       2.00000         -10.172676         -276.81259
     12       2.00000         -10.172676         -276.81259
     13       2.00000         -10.172031         -276.79504
     14       2.00000         -10.172031         -276.79504
     15       2.00000         -10.171783         -276.78831
     16       2.00000         -10.171783         -276.78831
     17       2.00000         -10.171361         -276.77682
     18       2.00000         -10.171361         -276.77682
     19       2.00000         -10.171355         -276.77665
     20       2.00000         -10.171355         -276.77665
     21       2.00000         -10.171135         -276.77066
     22       2.00000         -10.171135         -276.77066
     23       2.00000         -10.170428         -276.75141
     24       2.00000         -10.170428         -276.75141
     25       2.00000         -10.164374         -276.58670
     26       2.00000         -10.164374         -276.58670
     27       2.00000         -10.164162         -276.58092
     28       2.00000         -10.164146         -276.58048
     29       2.00000         -10.163868         -276.57291
     30       2.00000         -10.163867         -276.57290
     31       2.00000         -10.163597         -276.56556
     32       2.00000         -10.163555         -276.56439
     33       2.00000         -10.163238         -276.55577
     34       2.00000         -10.163215         -276.55514
     35       2.00000         -10.163104         -276.55212
     36       2.00000         -10.163104         -276.55212
     37       2.00000         -10.163004         -276.54940
     38       2.00000         -10.163002         -276.54935
     39       2.00000         -10.162959         -276.54818
     40       2.00000         -10.162958         -276.54817
     41       2.00000         -10.162635         -276.53938
     42       2.00000         -10.162635         -276.53938
     43       2.00000         -10.162379         -276.53241
     44       2.00000         -10.162379         -276.53241
     45       2.00000         -10.161200         -276.50031
     46       2.00000         -10.161200         -276.50031
     47       2.00000         -10.161061         -276.49654
     48       2.00000         -10.161061         -276.49654
     49       2.00000          -1.028300          -27.98147
     50       2.00000          -1.011732          -27.53062
     51       2.00000          -1.010335          -27.49261
     52       2.00000          -0.995778          -27.09649
     53       2.00000          -0.995458          -27.08778
     54       2.00000          -0.989649          -26.92972
     55       2.00000          -0.982857          -26.74490
     56       2.00000          -0.960233          -26.12927
     57       2.00000          -0.959450          -26.10797
     58       2.00000          -0.933906          -25.41288
     59       2.00000          -0.933099          -25.39092
     60       2.00000          -0.920379          -25.04480
     61       2.00000          -0.909572          -24.75071
     62       2.00000          -0.891110          -24.24834
     63       2.00000          -0.890323          -24.22691
     64       2.00000          -0.888979          -24.19036
     65       2.00000          -0.886610          -24.12590
     66       2.00000          -0.885556          -24.09720
     67       2.00000          -0.880336          -23.95515
     68       2.00000          -0.872513          -23.74227
     69       2.00000          -0.871767          -23.72198
     70       2.00000          -0.849589          -23.11849
     71       2.00000          -0.845250          -23.00042
     72       2.00000          -0.844757          -22.98700
     73       2.00000          -0.798774          -21.73575
     74       2.00000          -0.782865          -21.30283
     75       2.00000          -0.782576          -21.29498
     76       2.00000          -0.779018          -21.19815
     77       2.00000          -0.778031          -21.17130
     78       2.00000          -0.759600          -20.66977
     79       2.00000          -0.753773          -20.51121
     80       2.00000          -0.752897          -20.48736
     81       2.00000          -0.742265          -20.19807
     82       2.00000          -0.735924          -20.02552
     83       2.00000          -0.734583          -19.98903
     84       2.00000          -0.732884          -19.94279
     85       2.00000          -0.731007          -19.89172
     86       2.00000          -0.704294          -19.16482
     87       2.00000          -0.703683          -19.14820
     88       2.00000          -0.681098          -18.53362
     89       2.00000          -0.679649          -18.49418
     90       2.00000          -0.667416          -18.16132
     91       2.00000          -0.665882          -18.11957
     92       2.00000          -0.659993          -17.95931
     93       2.00000          -0.659575          -17.94794
     94       2.00000          -0.647454          -17.61813
     95       2.00000          -0.646712          -17.59793
     96       2.00000          -0.635564          -17.29457
     97       2.00000          -0.635213          -17.28504
     98       2.00000          -0.626527          -17.04868
     99       2.00000          -0.620759          -16.89170
    100       2.00000          -0.620454          -16.88342
    101       2.00000          -0.619360          -16.85364
    102       2.00000          -0.609459          -16.58423
    103       2.00000          -0.602862          -16.40471
    104       2.00000          -0.601259          -16.36108
    105       2.00000          -0.593918          -16.16133
    106       2.00000          -0.587842          -15.99600
    107       2.00000          -0.587415          -15.98439
    108       2.00000          -0.581226          -15.81597
    109       2.00000          -0.579675          -15.77376
    110       2.00000          -0.578384          -15.73863
    111       2.00000          -0.577612          -15.71763
    112       2.00000          -0.575707          -15.66580
    113       2.00000          -0.574088          -15.62172
    114       2.00000          -0.573651          -15.60983
    115       2.00000          -0.562427          -15.30441
    116       2.00000          -0.561354          -15.27522
    117       2.00000          -0.559949          -15.23698
    118       2.00000          -0.557502          -15.17041
    119       2.00000          -0.549747          -14.95937
    120       2.00000          -0.549102          -14.94184
    121       2.00000          -0.530741          -14.44219
    122       2.00000          -0.521862          -14.20059
    123       2.00000          -0.521577          -14.19284
    124       2.00000          -0.519669          -14.14092
    125       2.00000          -0.518862          -14.11894
    126       2.00000          -0.516019          -14.04160
    127       2.00000          -0.513646          -13.97701
    128       2.00000          -0.513541          -13.97417
    129       2.00000          -0.507140          -13.79997
    130       2.00000          -0.506178          -13.77380
    131       2.00000          -0.503768          -13.70822
    132       2.00000          -0.501629          -13.65001
    133       2.00000          -0.500390          -13.61630
    134       2.00000          -0.499410          -13.58963
    135       2.00000          -0.498984          -13.57805
    136       2.00000          -0.496474          -13.50974
    137       2.00000          -0.485706          -13.21674
    138       2.00000          -0.483966          -13.16939
    139       2.00000          -0.476271          -12.95999
    140       2.00000          -0.460378          -12.52752
    141       2.00000          -0.460048          -12.51855
    142       2.00000          -0.442092          -12.02995
    143       2.00000          -0.441704          -12.01937
    144       2.00000          -0.431626          -11.74514
    145       2.00000          -0.419800          -11.42333
    146       2.00000          -0.405322          -11.02938
    147       2.00000          -0.404272          -11.00079
    148       2.00000          -0.404109          -10.99636
    149       2.00000          -0.402248          -10.94573
    150       2.00000          -0.400956          -10.91056
    151       2.00000          -0.400617          -10.90135
    152       2.00000          -0.389160          -10.58958
    153       2.00000          -0.388879          -10.58193
    154       2.00000          -0.356308           -9.69564
    155       2.00000          -0.349297           -9.50484
    156       2.00000          -0.348713           -9.48897
    157       0.00000          -0.260767           -7.09584
    158       0.00000          -0.260275           -7.08243
    159       0.00000          -0.256671           -6.98438
    160       0.00000          -0.220997           -6.01364
    161       0.00000          -0.219629           -5.97640
    162       0.00000          -0.216354           -5.88730
    163       0.00000          -0.211465           -5.75425
    164       0.00000          -0.211022           -5.74221
    165       0.00000          -0.210546           -5.72925
    166       0.00000          -0.206776           -5.62666
    167       0.00000          -0.205522           -5.59254
    168       0.00000          -0.179373           -4.88099
    169       0.00000          -0.167356           -4.55398
    170       0.00000          -0.161954           -4.40700
    171       0.00000          -0.160298           -4.36193
    172       0.00000          -0.130600           -3.55381
    173       0.00000          -0.130191           -3.54267
    174       0.00000          -0.078135           -2.12617
    175       0.00000          -0.076183           -2.07305
    176       0.00000          -0.072253           -1.96611
    177       0.00000          -0.068465           -1.86302
    178       0.00000          -0.067756           -1.84373
    179       0.00000          -0.067627           -1.84022
    180       0.00000          -0.066779           -1.81716
    181       0.00000          -0.060788           -1.65413
    182       0.00000          -0.059742           -1.62566
    183       0.00000          -0.055845           -1.51961
    184       0.00000          -0.054998           -1.49659
    185       0.00000          -0.051985           -1.41458
    186       0.00000          -0.041289           -1.12354
    187       0.00000          -0.040977           -1.11504
    188       0.00000          -0.039442           -1.07326
    189       0.00000          -0.030999           -0.84354
    190       0.00000          -0.030358           -0.82609
    191       0.00000          -0.028335           -0.77103
    192       0.00000          -0.020309           -0.55263
    193       0.00000          -0.017344           -0.47195
    194       0.00000          -0.016403           -0.44634
    195       0.00000          -0.016217           -0.44129
    196       0.00000          -0.015095           -0.41075
    197       0.00000          -0.012372           -0.33666
    198       0.00000          -0.011563           -0.31463
    199       0.00000          -0.006596           -0.17949
    200       0.00000          -0.005786           -0.15743
    201       0.00000          -0.003033           -0.08253
    202       0.00000          -0.000277           -0.00753
    203       0.00000           0.000155            0.00423
    204       0.00000           0.003132            0.08522
    205       0.00000           0.014374            0.39114
    206       0.00000           0.014584            0.39685
    207       0.00000           0.015745            0.42843
    208       0.00000           0.015809            0.43017
    209       0.00000           0.017098            0.46527
    210       0.00000           0.017794            0.48419
    211       0.00000           0.018815            0.51199
    212       0.00000           0.023294            0.63386
    213       0.00000           0.027318            0.74335
    214       0.00000           0.027666            0.75283
    215       0.00000           0.027857            0.75801
    216       0.00000           0.034682            0.94374
    217       0.00000           0.035767            0.97328
    218       0.00000           0.038364            1.04393
    219       0.00000           0.039497            1.07477
    220       0.00000           0.039760            1.08194
    221       0.00000           0.040572            1.10403
    222       0.00000           0.043930            1.19540
    223       0.00000           0.045207            1.23015
    224       0.00000           0.046522            1.26592
    225       0.00000           0.047591            1.29502
    226       0.00000           0.052879            1.43890
    227       0.00000           0.054250            1.47622
    228       0.00000           0.054537            1.48402
    229       0.00000           0.055093            1.49915
    230       0.00000           0.056199            1.52926
    231       0.00000           0.069061            1.87925
    232       0.00000           0.071207            1.93763
    233       0.00000           0.071603            1.94841
    234       0.00000           0.072191            1.96441
    235       0.00000           0.072746            1.97952
    236       0.00000           0.073223            1.99251
    237       0.00000           0.075720            2.06044
    238       0.00000           0.078905            2.14712
    239       0.00000           0.079041            2.15082
    240       0.00000           0.080197            2.18228
    241       0.00000           0.080516            2.19096
    242       0.00000           0.082792            2.25289
    243       0.00000           0.083112            2.26160
    244       0.00000           0.084637            2.30310
    245       0.00000           0.085294            2.32097
    246       0.00000           0.097009            2.63975
    247       0.00000           0.098619            2.68356
    248       0.00000           0.100353            2.73075
    249       0.00000           0.100559            2.73635
    250       0.00000           0.102450            2.78780
    251       0.00000           0.103948            2.82858
    252       0.00000           0.104555            2.84509
    253       0.00000           0.109661            2.98404
    254       0.00000           0.110060            2.99489
    255       0.00000           0.110434            3.00506
    256       0.00000           0.110836            3.01600
    257       0.00000           0.112520            3.06181
    258       0.00000           0.114152            3.10623
    259       0.00000           0.120949            3.29119
    260       0.00000           0.121342            3.30190
    261       0.00000           0.121989            3.31948
    262       0.00000           0.127707            3.47508
    263       0.00000           0.127908            3.48055
    264       0.00000           0.128751            3.50350
    265       0.00000           0.129937            3.53575
    266       0.00000           0.130268            3.54478
    267       0.00000           0.131412            3.57590
    268       0.00000           0.131599            3.58099
    269       0.00000           0.133016            3.61954
    270       0.00000           0.133981            3.64581
    271       0.00000           0.143046            3.89248
    272       0.00000           0.146060            3.97450
    273       0.00000           0.148171            4.03195
    274       0.00000           0.150002            4.08176
    275       0.00000           0.150760            4.10240
    276       0.00000           0.152367            4.14612
    277       0.00000           0.154075            4.19261
    278       0.00000           0.155013            4.21812
    279       0.00000           0.155151            4.22187
    280       0.00000           0.156434            4.25680
    281       0.00000           0.158688            4.31813
    282       0.00000           0.158990            4.32633
    283       0.00000           0.164399            4.47351
    284       0.00000           0.169679            4.61721
    285       0.00000           0.171554            4.66822
    286       0.00000           0.172553            4.69541
    287       0.00000           0.173433            4.71935
    288       0.00000           0.175353            4.77159
    289       0.00000           0.176927            4.81444
    290       0.00000           0.177773            4.83744
    291       0.00000           0.180233            4.90438
    292       0.00000           0.182585            4.96839
    293       0.00000           0.183133            4.98329
    294       0.00000           0.186922            5.08640
    295       0.00000           0.189062            5.14464
    296       0.00000           0.190009            5.17041
    297       0.00000           0.194060            5.28065
    298       0.00000           0.194587            5.29499
    299       0.00000           0.201772            5.49051
    300       0.00000           0.201921            5.49455
    301       0.00000           0.202440            5.50867
    302       0.00000           0.203345            5.53330
    303       0.00000           0.204901            5.57563
    304       0.00000           0.204961            5.57728
    305       0.00000           0.205533            5.59283
    306       0.00000           0.206058            5.60711
    307       0.00000           0.206881            5.62953
    308       0.00000           0.214302            5.83145
    309       0.00000           0.217069            5.90674
    310       0.00000           0.218056            5.93361
    311       0.00000           0.223647            6.08574
    312       0.00000           0.232862            6.33649
    313       0.00000           0.232875            6.33686
    314       0.00000           0.233077            6.34234
    315       0.00000           0.234079            6.36961
    316       0.00000           0.234264            6.37465
    317       0.00000           0.234862            6.39092
    318       0.00000           0.249423            6.78714
    319       0.00000           0.250676            6.82123
    320       0.00000           0.251500            6.84365
    321       0.00000           0.251553            6.84511
    322       0.00000           0.252017            6.85774
    323       0.00000           0.252339            6.86650
    324       0.00000           0.254230            6.91795
    325       0.00000           0.255206            6.94451
    326       0.00000           0.258916            7.04546
    327       0.00000           0.261042            7.10332
    328       0.00000           0.262463            7.14197
    329       0.00000           0.265723            7.23068
    330       0.00000           0.272122            7.40483
    331       0.00000           0.273590            7.44476
    332       0.00000           0.274892            7.48020
    333       0.00000           0.278383            7.57518
    334       0.00000           0.279060            7.59362
    335       0.00000           0.280213            7.62499
    336       0.00000           0.281591            7.66248

  Highest occupied state (VBM) at     -9.48896799 eV
  | Occupation number:      2.00000000

  Lowest unoccupied state (CBM) at    -7.09583694 eV
  | Occupation number:      0.00000000

  Overall HOMO-LUMO gap:      2.39313105 eV.
  Calculating total energy contributions from superposition of free atom densities.

  Total energy components:
  | Sum of eigenvalues            :       -1116.20972439 Ha      -30373.61199299 eV
  | XC energy correction          :        -263.34807189 Ha       -7166.06564155 eV
  | XC potential correction       :         338.28174012 Ha        9205.11449969 eV
  | Free-atom electrostatic energy:        -803.73945663 Ha      -21870.86339229 eV
  | Hartree energy correction     :           0.00000000 Ha           0.00000000 eV
  | Entropy correction            :           0.00000000 Ha           0.00000000 eV
  | ---------------------------
  | Total energy                  :       -1845.01551280 Ha      -50205.42652713 eV
  | Total energy, T -> 0          :       -1845.01551280 Ha      -50205.42652713 eV  <-- do not rely on this value for anything but (periodic) metals
  | Electronic free energy        :       -1845.01551280 Ha      -50205.42652713 eV

  Derived energy quantities:
  | Kinetic energy                :        1829.56275829 Ha       49784.93568273 eV
  | Electrostatic energy          :       -3411.23019920 Ha      -92824.29656831 eV
  | Energy correction for multipole
  | error in Hartree potential    :           0.00000000 Ha           0.00000000 eV
  | Sum of eigenvalues per atom                           :        -421.85572212 eV
  | Total energy (T->0) per atom                          :        -697.29759065 eV  <-- do not rely on this value for anything but (periodic) metals
  | Electronic free energy per atom                       :        -697.29759065 eV
  Initialize hartree_potential_storage
  Max. number of atoms included in rho_multipole:           72

  End scf initialization - timings             :  max(cpu_time)    wall_clock(cpu1)
  | Time for scf. initialization               :       14.853 s          15.375 s
  | Boundary condition initialization          :        0.001 s           0.005 s
  | Integration                                :       11.250 s          11.271 s
  | Solution of K.-S. eqns.                    :        0.530 s           0.574 s
  | Grid partitioning                          :        1.332 s           1.545 s
  | Preloading free-atom quantities on grid    :        0.014 s           0.022 s
  | Free-atom superposition energy             :        0.118 s           0.120 s
  | Total energy evaluation                    :        0.001 s           0.008 s

  Partial memory accounting:
  | Current value for overall tracked memory usage on task 0  :           9.871 MB
  | Peak value for overall tracked memory usage on task 0     :          39.671 MB after allocating zora_vector2
  | Largest tracked array allocation on task 0 so far         :          10.197 MB  when allocating hamiltonian_shell
  Note:  These values currently only include a subset of arrays which are explicitly tracked.
  The "true" memory usage will be greater.
------------------------------------------------------------

------------------------------------------------------------
          Begin self-consistency iteration #    1

  Date     :  20210620, Time     :  170137.321
------------------------------------------------------------
  Evaluating new KS density.
  Integration grid: deviation in total charge (<rho> - N_e) =   1.136868E-13
  Pulay mixing of updated and previous charge densities.

  Evaluating partitioned Hartree potential by multipole expansion.
  | Analytical far-field extrapolation by fixed multipoles:
  | Hartree multipole sum: apparent total charge =   0.152249E-03
  Summing up the Hartree potential with load balancing.
  Time summed over all CPUs for potential: real work       53.035 s, elapsed       89.230 s
  | RMS charge density error from multipole expansion :   0.165424E-01

  Start compute_balanced_batch_distribution
  Done load balancing, time needed:      0.011 s
  Integrating Hamiltonian matrix: batch-based integration with load balancing
  Time summed over all CPUs for integration: real work      305.970 s, elapsed      346.705 s
  Time get_set_full_local_matrix_scalapack:     0.032018 s
  Start compute_balanced_batch_distribution
  Done load balancing, time needed:      0.011 s

  Updating Kohn-Sham eigenvalues and eigenvectors using ELSI and the ELPA eigensolver.
  Finished transformation to standard eigenproblem
  | Time :     0.060 s
  Starting ELPA eigensolver
  Finished solving standard eigenproblem
  | Time :     0.203 s
  Finished back-transformation of eigenvectors
  | Time :     0.009 s

  Obtaining occupation numbers and chemical potential using ELSI.
  | Chemical potential (Fermi level):    -5.51354341 eV
  Writing Kohn-Sham eigenvalues.

  State    Occupation    Eigenvalue [Ha]    Eigenvalue [eV]
      1       2.00000         -10.000280         -272.12146
      2       2.00000         -10.000267         -272.12112
      3       2.00000          -9.999772         -272.10764
      4       2.00000          -9.999752         -272.10711
      5       2.00000          -9.998811         -272.08148
      6       2.00000          -9.998804         -272.08130
      7       2.00000          -9.997868         -272.05584
      8       2.00000          -9.997868         -272.05584
      9       2.00000          -9.997755         -272.05276
     10       2.00000          -9.997755         -272.05276
     11       2.00000          -9.994452         -271.96288
     12       2.00000          -9.994452         -271.96288
     13       2.00000          -9.987110         -271.76309
     14       2.00000          -9.987110         -271.76308
     15       2.00000          -9.987008         -271.76032
     16       2.00000          -9.987008         -271.76032
     17       2.00000          -9.986106         -271.73576
     18       2.00000          -9.986106         -271.73576
     19       2.00000          -9.985591         -271.72176
     20       2.00000          -9.985591         -271.72176
     21       2.00000          -9.984426         -271.69006
     22       2.00000          -9.984426         -271.69006
     23       2.00000          -9.983546         -271.66612
     24       2.00000          -9.983546         -271.66612
     25       2.00000          -9.951371         -270.79059
     26       2.00000          -9.951371         -270.79059
     27       2.00000          -9.950983         -270.78003
     28       2.00000          -9.950983         -270.78003
     29       2.00000          -9.949744         -270.74630
     30       2.00000          -9.949744         -270.74630
     31       2.00000          -9.949623         -270.74302
     32       2.00000          -9.949623         -270.74302
     33       2.00000          -9.949574         -270.74169
     34       2.00000          -9.949574         -270.74169
     35       2.00000          -9.949433         -270.73785
     36       2.00000          -9.949433         -270.73785
     37       2.00000          -9.944603         -270.60641
     38       2.00000          -9.944603         -270.60640
     39       2.00000          -9.944104         -270.59285
     40       2.00000          -9.944104         -270.59285
     41       2.00000          -9.943663         -270.58084
     42       2.00000          -9.943663         -270.58084
     43       2.00000          -9.943393         -270.57350
     44       2.00000          -9.943393         -270.57349
     45       2.00000          -9.943064         -270.56455
     46       2.00000          -9.943064         -270.56455
     47       2.00000          -9.942446         -270.54771
     48       2.00000          -9.942446         -270.54771
     49       2.00000          -0.903358          -24.58161
     50       2.00000          -0.877476          -23.87734
     51       2.00000          -0.876858          -23.86052
     52       2.00000          -0.850463          -23.14227
     53       2.00000          -0.850191          -23.13488
     54       2.00000          -0.840800          -22.87932
[...]
    166       0.00000          -0.042048           -1.14419
    167       0.00000          -0.040160           -1.09281
    168       0.00000          -0.013284           -0.36146
    169       0.00000          -0.008269           -0.22502
    170       0.00000          -0.005530           -0.15048
    171       0.00000          -0.004149           -0.11290
    172       0.00000          -0.003941           -0.10723
    173       0.00000           0.004305            0.11716
    174       0.00000           0.004666            0.12696
    175       0.00000           0.005015            0.13646
    176       0.00000           0.005816            0.15825
    177       0.00000           0.013023            0.35436
    178       0.00000           0.017815            0.48478
    179       0.00000           0.023552            0.64089
    180       0.00000           0.024818            0.67533
    181       0.00000           0.027673            0.75302
    182       0.00000           0.027959            0.76081
    183       0.00000           0.034729            0.94502
    184       0.00000           0.041513            1.12964
    185       0.00000           0.041859            1.13903
    186       0.00000           0.043481            1.18318
    187       0.00000           0.044462            1.20988
    188       0.00000           0.046314            1.26026
    189       0.00000           0.046872            1.27544
    190       0.00000           0.053893            1.46651
    191       0.00000           0.054125            1.47281
    192       0.00000           0.063918            1.73929
    193       0.00000           0.064758            1.76215
    194       0.00000           0.073961            2.01258
    195       0.00000           0.074858            2.03698
    196       0.00000           0.077836            2.11802
    197       0.00000           0.080700            2.19595
    198       0.00000           0.084907            2.31044
    199       0.00000           0.088139            2.39838
    200       0.00000           0.094312            2.56637
    201       0.00000           0.098984            2.69350
    202       0.00000           0.100493            2.73456
    203       0.00000           0.102699            2.79459
    204       0.00000           0.103035            2.80372
    205       0.00000           0.103345            2.81217
    206       0.00000           0.103490            2.81610
    207       0.00000           0.104452            2.84228
    208       0.00000           0.118018            3.21143
    209       0.00000           0.121448            3.30478
    210       0.00000           0.122727            3.33957
    211       0.00000           0.127864            3.47935
    212       0.00000           0.130242            3.54407
    213       0.00000           0.136450            3.71299
    214       0.00000           0.140697            3.82856
    215       0.00000           0.142575            3.87966
    216       0.00000           0.142997            3.89115
    217       0.00000           0.147578            4.01581
    218       0.00000           0.154736            4.21058
    219       0.00000           0.155342            4.22706
    220       0.00000           0.156008            4.24520
    221       0.00000           0.157209            4.27787
    222       0.00000           0.157763            4.29295
    223       0.00000           0.158611            4.31602
    224       0.00000           0.163821            4.45779
    225       0.00000           0.164436            4.47453
    226       0.00000           0.168771            4.59250
    227       0.00000           0.169976            4.62527
    228       0.00000           0.170613            4.64261
    229       0.00000           0.171524            4.66741
    230       0.00000           0.175650            4.77968
    231       0.00000           0.176940            4.81477
    232       0.00000           0.177393            4.82711
    233       0.00000           0.179758            4.89146
    234       0.00000           0.181201            4.93072
    235       0.00000           0.181761            4.94597
    236       0.00000           0.183821            5.00203
    237       0.00000           0.184598            5.02317
    238       0.00000           0.185190            5.03928
    239       0.00000           0.186453            5.07365
    240       0.00000           0.187395            5.09928
    241       0.00000           0.191764            5.21816
    242       0.00000           0.192801            5.24638
    243       0.00000           0.192940            5.25017
    244       0.00000           0.193523            5.26602
    245       0.00000           0.195239            5.31272
    246       0.00000           0.197171            5.36529
    247       0.00000           0.200212            5.44803
    248       0.00000           0.204135            5.55480
    249       0.00000           0.207139            5.63653
    250       0.00000           0.209715            5.70665
    251       0.00000           0.211144            5.74551
    252       0.00000           0.211526            5.75591
    253       0.00000           0.214655            5.84105
    254       0.00000           0.216996            5.90475
    255       0.00000           0.217835            5.92758
    256       0.00000           0.222734            6.06089
    257       0.00000           0.224304            6.10361
    258       0.00000           0.224408            6.10645
    259       0.00000           0.225560            6.13779
    260       0.00000           0.226665            6.16788
    261       0.00000           0.232063            6.31476
    262       0.00000           0.233140            6.34407
    263       0.00000           0.237844            6.47206
    264       0.00000           0.238164            6.48077
    265       0.00000           0.238719            6.49587
    266       0.00000           0.239252            6.51037
    267       0.00000           0.242707            6.60440
    268       0.00000           0.244798            6.66129
    269       0.00000           0.245046            6.66804
    270       0.00000           0.245527            6.68113
    271       0.00000           0.248598            6.76469
    272       0.00000           0.249825            6.79810
    273       0.00000           0.252585            6.87319
    274       0.00000           0.257754            7.01384
    275       0.00000           0.258706            7.03976
    276       0.00000           0.259871            7.07146
    277       0.00000           0.260576            7.09064
    278       0.00000           0.263191            7.16179
    279       0.00000           0.264154            7.18798
    280       0.00000           0.265265            7.21823
    281       0.00000           0.266061            7.23990
    282       0.00000           0.267387            7.27598
    283       0.00000           0.268605            7.30912
    284       0.00000           0.269785            7.34123
    285       0.00000           0.270727            7.36685
    286       0.00000           0.278112            7.56781
    287       0.00000           0.279745            7.61225
    288       0.00000           0.282376            7.68384
    289       0.00000           0.284203            7.73355
    290       0.00000           0.286447            7.79461
    291       0.00000           0.286991            7.80943
    292       0.00000           0.288301            7.84507
    293       0.00000           0.289453            7.87641
    294       0.00000           0.294252            8.00700
    295       0.00000           0.295529            8.04175
    296       0.00000           0.299300            8.14437
    297       0.00000           0.302177            8.22266
    298       0.00000           0.305599            8.31576
    299       0.00000           0.309787            8.42972
    300       0.00000           0.309876            8.43215
    301       0.00000           0.311033            8.46363
    302       0.00000           0.312064            8.49169
    303       0.00000           0.313571            8.53271
    304       0.00000           0.317067            8.62784
    305       0.00000           0.324564            8.83183
    306       0.00000           0.327375            8.90832
    307       0.00000           0.328079            8.92749
    308       0.00000           0.335424            9.12735
    309       0.00000           0.335498            9.12936
    310       0.00000           0.335600            9.13213
    311       0.00000           0.336030            9.14384
    312       0.00000           0.338571            9.21300
    313       0.00000           0.339799            9.24641
    314       0.00000           0.343190            9.33868
    315       0.00000           0.343975            9.36003
    316       0.00000           0.345805            9.40984
    317       0.00000           0.352699            9.59743
    318       0.00000           0.354657            9.65071
    319       0.00000           0.355360            9.66982
    320       0.00000           0.355606            9.67654
    321       0.00000           0.362908            9.87522
    322       0.00000           0.363582            9.89357
    323       0.00000           0.365125            9.93554
    324       0.00000           0.365145            9.93609
    325       0.00000           0.365599            9.94846
    326       0.00000           0.367477            9.99956
    327       0.00000           0.374053           10.17851
    328       0.00000           0.375570           10.21979
    329       0.00000           0.376027           10.23220
    330       0.00000           0.376917           10.25643
    331       0.00000           0.378128           10.28939
    332       0.00000           0.388177           10.56283
    333       0.00000           0.391321           10.64839
    334       0.00000           0.402315           10.94756
    335       0.00000           0.405703           11.03974
    336       0.00000           0.407837           11.09781

  Highest occupied state (VBM) at     -4.98233889 eV
  | Occupation number:      2.00000000

  Lowest unoccupied state (CBM) at    -2.61706843 eV
  | Occupation number:      0.00000000

  Overall HOMO-LUMO gap:      2.36527046 eV.

  Total energy components:
  | Sum of eigenvalues            :       -1049.73567290 Ha      -28564.76101872 eV
  | XC energy correction          :        -267.87461105 Ha       -7289.23903901 eV
  | XC potential correction       :         344.13034167 Ha        9364.26304523 eV
  | Free-atom electrostatic energy:        -803.73945663 Ha      -21870.86339229 eV
  | Hartree energy correction     :         -65.69156707 Ha       -1787.55849001 eV
  | Entropy correction            :           0.00000000 Ha           0.00000000 eV
  | ---------------------------
  | Total energy                  :       -1842.91096599 Ha      -50148.15889479 eV
  | Total energy, T -> 0          :       -1842.91096599 Ha      -50148.15889479 eV  <-- do not rely on this value for anything but (periodic) metals
  | Electronic free energy        :       -1842.91096599 Ha      -50148.15889479 eV

  Derived energy quantities:
  | Kinetic energy                :        1837.97082370 Ha       50013.73078357 eV
  | Electrostatic energy          :       -3413.00717864 Ha      -92872.65063935 eV
  | Energy correction for multipole
  | error in Hartree potential    :          -0.23239815 Ha          -6.32387548 eV
  | Sum of eigenvalues per atom                           :        -396.73279193 eV
  | Total energy (T->0) per atom                          :        -696.50220687 eV  <-- do not rely on this value for anything but (periodic) metals
  | Electronic free energy per atom                       :        -696.50220687 eV
  End evaluation of scaled ZORA corrections.
  | Time for scaled ZORA corrections           :       10.450 s          10.462 s
------------------------------------------------------------

  Energy and forces in a compact form:
  | Total energy uncorrected      :         -0.501481588947893E+05 eV
  | Total energy corrected        :         -0.501481588947893E+05 eV  <-- do not rely on this value for anything but (periodic) metals
  | Electronic free energy        :         -0.501481588947893E+05 eV

  ------------------------------------ 
  Start decomposition of the XC Energy 
  ------------------------------------ 
  X and C from original XC functional choice 
  Hartree-Fock Energy :          0.000000000 Ha              0.000000000 eV
  X Energy            :       -257.327013073 Ha          -7002.224294962 eV
  C Energy            :        -10.547597975 Ha           -287.014744044 eV
  Total XC Energy     :       -267.874611048 Ha          -7289.239039006 eV
  ------------------------------------ 
  LDA X and C from self-consistent density 
  X Energy LDA        :       -233.149965381 Ha          -6344.333354141 eV
  C Energy LDA        :        -20.239201881 Ha           -550.736704359 eV
  ------------------------------------ 
  End decomposition of the XC Energy 
  ------------------------------------ 

------------------------------------------------------------

------------------------------------------------------------------------------
  Final output of selected total energy values:

  The following output summarizes some interesting total energy values
  at the end of a run (AFTER all relaxation, molecular dynamics, etc.).

  | Total energy of the DFT / Hartree-Fock s.c.f. calculation      :         -50148.158894789 eV
  | Final zero-broadening corrected energy (caution - metals only) :         -50148.158894789 eV
  | For reference only, the value of 1 Hartree used in FHI-aims is :             27.211384500 eV

  Before relying on these values, please be sure to understand exactly which
  total energy value is referred to by a given number. Different objects may
  all carry the same name 'total energy'. Definitions:

  Total energy of the DFT / Hartree-Fock s.c.f. calculation:
  | Note that this energy does not include ANY quantities calculated after the
  | s.c.f. cycle, in particular not ANY RPA, MP2, etc. many-body perturbation terms.
  | Scalar relativistic effects have been included in the 'scaled ZORA' approximation.

  Final zero-broadening corrected energy:
  | For metallic systems only, a broadening of the occupation numbers at the Fermi
  | level can be extrapolated back to zero broadening by an electron-gas inspired
  | formula. For all systems that are not real metals, this value can be
  | meaningless and should be avoided.

------------------------------------------------------------------------------
  Methods described in the following list of references were used in this FHI-aims run.
  If you publish the results, please make sure to cite these reference if they apply.
  FHI-aims is an academic code, and for our developers (often, Ph.D. students
  and postdocs), scientific credit in the community is essential.
  Thank you for helping us!

  For any use of FHI-aims, please cite:

    Volker Blum, Ralf Gehrke, Felix Hanke, Paula Havu, Ville Havu,
    Xinguo Ren, Karsten Reuter, and Matthias Scheffler
    'Ab initio molecular simulations with numeric atom-centered orbitals'
    Computer Physics Communications 180, 2175-2196 (2009)
    http://dx.doi.org/10.1016/j.cpc.2009.06.022


  The scalable eigensolver library ELPA was used in your run.
  ELPA is essential especially for large systems on hundreds or thousands of CPUs.
  For ELPA, please cite:

    Andreas Marek, Volker Blum, Rainer Johanni, Ville Havu, Bruno Lang,
    Thomas Auckenthaler, Alexander Heinecke, Hans-Joachim Bungartz, and Hermann Lederer,
    'The ELPA Library - Scalable Parallel Eigenvalue Solutions
    for Electronic Structure Theory and Computational Science'
    The Journal of Physics: Condensed Matter 26, 213201 (2014).
    http://dx.doi.org/10.1088/0953-8984/26/21/213201


  The ELSI infrastructure was used in your run to solve the Kohn-Sham electronic structure.
  Please check out http://elsi-interchange.org to learn more.
  If scalability is important for your project, please acknowledge ELSI by citing:

    V. W-z. Yu, F. Corsetti, A. Garcia, W. P. Huhn, M. Jacquelin, W. Jia,
    B. Lange, L. Lin, J. Lu, W. Mi, A. Seifitokaldani, A. Vazquez-Mayagoitia,
    C. Yang, H. Yang, and V. Blum
    'ELSI: A unified software interface for Kohn-Sham electronic structure solvers'
    Computer Physics Communications 222, 267-285 (2018).
    http://dx.doi.org/10.1016/j.cpc.2017.09.007


  For the real-space grid partitioning and parallelization used in this calculation, please cite:

    Ville Havu, Volker Blum, Paula Havu, and Matthias Scheffler,
    'Efficient O(N) integration for all-electron electronic structure calculation'
    'using numerically tabulated basis functions'
    Journal of Computational Physics 228, 8367-8379 (2009).
    http://dx.doi.org/10.1016/j.jcp.2009.08.008

  Of course, there are many other important community references, e.g., those cited in the
  above references. Our list is limited to references that describe implementations in the
  FHI-aims code. The reason is purely practical (length of this list) - please credit others as well.

------------------------------------------------------------
          Leaving FHI-aims.
          Date     :  20210620, Time     :  170444.329

          Computational steps:
          | Number of self-consistency cycles          :           17
          | Number of SCF (re)initializations          :            1

          Detailed time accounting                     :  max(cpu_time)    wall_clock(cpu1)
          | Total time                                 :      197.742 s         202.935 s
          | Preparation time                           :        0.217 s           0.216 s
          | Boundary condition initalization           :        0.001 s           0.005 s
          | Grid partitioning                          :        1.332 s           1.545 s
          | Preloading free-atom quantities on grid    :        0.014 s           0.022 s
          | Free-atom superposition energy             :        0.118 s           0.120 s
          | Total time for integrations                :      109.024 s         109.048 s
          | Total time for solution of K.-S. equations :        6.594 s           6.644 s
          | Total time for density update              :       49.127 s          48.392 s
          | Total time for mixing                      :        0.210 s           0.213 s
          | Total time for Hartree multipole update    :        0.243 s           0.276 s
          | Total time for Hartree multipole sum       :       18.468 s          18.471 s
          | Total time for total energy evaluation     :        0.008 s           0.035 s
          | Total time for scaled ZORA corrections     :       10.450 s          10.462 s

          Partial memory accounting:
          | Residual value for overall tracked memory usage across tasks :     0.000000 MB (should be 0.000000 MB)
          | Peak values for overall tracked memory usage (after allocating zora_vector2):
          |   Minimum:       37.641 MB (on task  8)
          |   Maximum:       50.632 MB (on task 23)
          |   Average:       43.366 MB
          | Largest tracked array allocation (hamiltonian_shell):
          |   Minimum:       10.197 MB (on task  1)
          |   Maximum:       10.870 MB (on task 23)
          |   Average:       10.221 MB
          Note:  These values currently only include a subset of arrays which are explicitly tracked.
          The "true" memory usage will be greater.

          Have a nice day.
------------------------------------------------------------
