  MPI-parallelism will be employed.
------------------------------------------------------------
          Invoking FHI-aims ...
          Version 180607
          Git rev. (modified): 6724847 Fix JSON memory corruption in scf_solver
          Compiled on 2018/06/27 at 16:00:31 on host coe.psc.edu.

          When using FHI-aims, please cite the following reference:

          Volker Blum, Ralf Gehrke, Felix Hanke, Paula Havu,
          Ville Havu, Xinguo Ren, Karsten Reuter, and Matthias Scheffler,
          'Ab Initio Molecular Simulations with Numeric Atom-Centered Orbitals',
          Computer Physics Communications 180, 2175-2196 (2009)

          For any questions about FHI-aims, please visit the aimsclub website
          with its forums and wiki. Contributions to both the forums and the
          wiki are warmly encouraged - they are for you, and everyone is welcome there.

------------------------------------------------------------



  Date     :  20210620, Time     :  165120.396
  Time zero on CPU 1             :   0.382531000000000E+00  s.
  Internal wall clock time zero  :           393439880.396  s.

  FHI-aims created a unique identifier for this run for later identification
  aims_uuid : DDDD3B58-55C7-43CC-AC2D-7BC8B2A76DC8

  Using       56 parallel tasks.
  Task        0 on host d021 reporting.
  Task        1 on host d021 reporting.
  Task        2 on host d021 reporting.
  Task        3 on host d021 reporting.
  Task        4 on host d021 reporting.
  Task        5 on host d021 reporting.
  Task        6 on host d021 reporting.
  Task        7 on host d021 reporting.
  Task        8 on host d021 reporting.
  Task        9 on host d021 reporting.
  Task       10 on host d021 reporting.
  Task       11 on host d021 reporting.
  Task       12 on host d021 reporting.
  Task       13 on host d021 reporting.
  Task       14 on host d021 reporting.
  Task       15 on host d021 reporting.
  Task       16 on host d021 reporting.
  Task       17 on host d021 reporting.
  Task       18 on host d021 reporting.
  Task       19 on host d021 reporting.
  Task       20 on host d021 reporting.
  Task       21 on host d021 reporting.
  Task       22 on host d021 reporting.
  Task       23 on host d021 reporting.
  Task       24 on host d021 reporting.
  Task       25 on host d021 reporting.
  Task       26 on host d021 reporting.
  Task       27 on host d021 reporting.
  Task       28 on host d021 reporting.
  Task       29 on host d021 reporting.
  Task       30 on host d021 reporting.
  Task       31 on host d021 reporting.
  Task       32 on host d021 reporting.
  Task       33 on host d021 reporting.
  Task       34 on host d021 reporting.
  Task       35 on host d021 reporting.
  Task       36 on host d021 reporting.
  Task       37 on host d021 reporting.
  Task       38 on host d021 reporting.
  Task       39 on host d021 reporting.
  Task       40 on host d021 reporting.
  Task       41 on host d021 reporting.
  Task       42 on host d021 reporting.
  Task       43 on host d021 reporting.
  Task       44 on host d021 reporting.
  Task       45 on host d021 reporting.
  Task       46 on host d021 reporting.
  Task       47 on host d021 reporting.
  Task       48 on host d021 reporting.
  Task       49 on host d021 reporting.
  Task       50 on host d021 reporting.
  Task       51 on host d021 reporting.
  Task       52 on host d021 reporting.
  Task       53 on host d021 reporting.
  Task       54 on host d021 reporting.
  Task       55 on host d021 reporting.

  Performing system and environment tests:
  *** Environment variable OMP_NUM_THREADS is not set
  *** For performance reasons you might want to set it to 1
  | Stacksize not measured: no C compiler
  | Checking for scalapack...
  | Testing pdtran()...
  | All pdtran() tests passed.

  Obtaining array dimensions for all initial allocations:
  
  -----------------------------------------------------------------------
  Parsing control.in (first pass over file, find array dimensions only).
  The contents of control.in will be repeated verbatim below
  unless switched off by setting 'verbatim_writeout .false.' .
  in the first line of control.in .
  -----------------------------------------------------------------------
  
  #===============================================================================
  # FHI-aims file: ./Runs/es/control.in
  # Created using the Atomic Simulation Environment (ASE)
  # Mon Jan 13 16:04:38 2020
  #===============================================================================
  xc                                 pbe
  relativistic                       zora scalar 1e-12
  occupation_type                    gaussian 0.0001
  load_balancing                     .true.
  KS_method                          scalapack_fast
  mixer                              pulay
  n_max_pulay                        5
  charge_mix_param                   0.4
  sc_accuracy_etot                   1e-6
  sc_accuracy_eev                    1e-4
  sc_accuracy_rho                    1e-6
  sc_iter_limit                      100
  prodbas_threshold                  1e-4
  basis_threshold                    1e-5
  override_illconditioning           .true.
  use_logsbt                         .true.
  spin                               none
  charge                             0
  #===============================================================================
  
  ################################################################################
  #
  #  FHI-aims code project
  # Volker Blum, Fritz Haber Institute Berlin, 2009
  #
  #  Suggested "tight" defaults for H atom (to be pasted into control.in file)
  #
  ################################################################################
    species        H
  #     global species definitions
      nucleus             1
      mass                1.00794
  #
      l_hartree           6
  #
      cut_pot             4.0  2.0  1.0
      basis_dep_cutoff    1e-4
  #
      radial_base         24 7.0
      radial_multiplier   2
      angular_grids       specified
        division   0.1930   50
        division   0.3175  110
        division   0.4293  194
        division   0.5066  302
        division   0.5626  434
  #      division   0.5922  590
  #      division   0.6227  974
  #      division   0.6868 1202
  #      outer_grid  770
        outer_grid  434
  ################################################################################
  #
  #  Definition of "minimal" basis
  #
  ################################################################################
  #     valence basis states
      valence      1  s   1.
  #     ion occupancy
      ion_occ      1  s   0.5
  ################################################################################
  #
  #  Suggested additional basis functions. For production calculations,
  #  uncomment them one after another (the most important basis functions are
  #  listed first).
  #
  #  Basis constructed for dimers: 0.5 A, 0.7 A, 1.0 A, 1.5 A, 2.5 A
  #
  ################################################################################
  #  "First tier" - improvements: -1014.90 meV to -62.69 meV
       hydro 2 s 2.1
       hydro 2 p 3.5
  #  "Second tier" - improvements: -12.89 meV to -1.83 meV
       hydro 1 s 0.85
       hydro 2 p 3.7
       hydro 2 s 1.2
       hydro 3 d 7
  #  "Third tier" - improvements: -0.25 meV to -0.12 meV
  #     hydro 4 f 11.2
  #     hydro 3 p 4.8
  #     hydro 4 d 9
  #     hydro 3 s 3.2
  ################################################################################
  #
  # For methods that use the localized form of the "resolution of identity" for
  # the two-electron Coulomb operator (RI_method LVL), particularly Hartree-Fock and
  # hybrid density functional calculations, the highest accuracy can be obtained by
  # uncommenting the line beginning with "for_aux"  below, thus adding an extra g radial
  # function to the construction of the product basis set for the expansion.
  # See Ref. New J. Phys. 17, 093020 (2015) for more information, particularly Figs. 1 and 6.
  #
  ################################################################################
  #
  # for_aux hydro 5 g 6.0
  ################################################################################
  #
  #  FHI-aims code project
  # Volker Blum, Fritz Haber Institute Berlin, 2009
  #
  #  Suggested "tight" defaults for C atom (to be pasted into control.in file)
  #
  ################################################################################
    species        C
  #     global species definitions
      nucleus             6
      mass                12.0107
  #
      l_hartree           6
  #
      cut_pot             4.0  2.0  1.0
      basis_dep_cutoff    1e-4
  #
      radial_base         34 7.0
      radial_multiplier   2
      angular_grids specified
        division   0.2187   50
        division   0.4416  110
        division   0.6335  194
        division   0.7727  302
        division   0.8772  434
  #      division   0.9334  590
  #      division   0.9924  770
  #      division   1.0230  974
  #      division   1.5020 1202
  #     outer_grid  974
        outer_grid  434
  ################################################################################
  #
  #  Definition of "minimal" basis
  #
  ################################################################################
  #     valence basis states
      valence      2  s   2.
      valence      2  p   2.
  #     ion occupancy
      ion_occ      2  s   1.
      ion_occ      2  p   1.
  ################################################################################
  #
  #  Suggested additional basis functions. For production calculations,
  #  uncomment them one after another (the most important basis functions are
  #  listed first).
  #
  #  Constructed for dimers: 1.0 A, 1.25 A, 1.5 A, 2.0 A, 3.0 A
  #
  ################################################################################
  #  "First tier" - improvements: -1214.57 meV to -155.61 meV
       hydro 2 p 1.7
       hydro 3 d 6
       hydro 2 s 4.9
  #  "Second tier" - improvements: -67.75 meV to -5.23 meV
       hydro 4 f 9.8
       hydro 3 p 5.2
       hydro 3 s 4.3
       hydro 5 g 14.4
       hydro 3 d 6.2
  #  "Third tier" - improvements: -2.43 meV to -0.60 meV
  #     hydro 2 p 5.6
  #     hydro 2 s 1.4
  #     hydro 3 d 4.9
  #     hydro 4 f 11.2
  #  "Fourth tier" - improvements: -0.39 meV to -0.18 meV
  #     hydro 2 p 2.1
  #     hydro 5 g 16.4
  #     hydro 4 d 13.2
  #     hydro 3 s 13.6
  #     hydro 4 f 17.6
  #  Further basis functions - improvements: -0.08 meV and below
  #     hydro 3 s 2
  #     hydro 3 p 6
  #     hydro 4 d 20
  ################################################################################
  #
  # For methods that use the localized form of the "resolution of identity" for
  # the two-electron Coulomb operator (RI_method LVL), particularly Hartree-Fock and
  # hybrid density functional calculations, the highest accuracy can be obtained by
  # uncommenting the line beginning with "for_aux"  below, thus adding an extra g radial
  # function to the construction of the product basis set for the expansion.
  # See Ref. New J. Phys. 17, 093020 (2015) for more information, particularly Figs. 1 and 6.
  #
  ################################################################################
  #
  # for_aux hydro 5 g 6.0
  
  -----------------------------------------------------------------------
  Completed first pass over input file control.in .
  -----------------------------------------------------------------------
  
  
  -----------------------------------------------------------------------
  Parsing geometry.in (first pass over file, find array dimensions only).
  The contents of geometry.in will be repeated verbatim below
  unless switched off by setting 'verbatim_writeout .false.' .
  in the first line of geometry.in .
  -----------------------------------------------------------------------
  
  #=======================================================
  # FHI-aims file: geometry.in
  # Created using the Atomic Simulation Environment (ASE)
  # Sun Jun 20 15:47:01 2021
  #=======================================================
  atom 15.6502549999999996 19.8152329999999992 30.4180719999999987 H
  atom 15.3928809999999991 19.4064279999999982 29.4400060000000003 C
  atom 14.0803569999999993 19.4642179999999989 29.0000000000000000 C
  atom 16.3810980000000015 18.8299710000000005 28.6580450000000013 C
  atom 13.7777860000000008 18.9096380000000011 27.7559690000000003 C
  atom 13.0283460000000009 20.1107939999999985 29.8297619999999988 C
  atom 16.0608450000000005 18.2836089999999984 27.4373019999999990 C
  atom 17.4068790000000000 18.8033409999999996 29.0254930000000009 H
  atom 12.7523409999999995 18.9461070000000014 27.3854569999999988 H
  atom 14.7637909999999994 18.3238079999999997 26.9936180000000014 C
  atom 11.9855129999999992 19.3548679999999997 30.3984610000000011 C
  atom 13.0846990000000005 21.5001099999999994 30.0589569999999995 C
  atom 16.8340549999999993 17.8217590000000001 26.8248460000000009 H
  atom 14.5094379999999994 17.8799789999999987 26.0319760000000002 H
  atom 11.9065910000000006 17.9610039999999991 30.2170659999999991 C
  atom 10.9972639999999995 19.9947690000000016 31.2233209999999985 C
  atom 12.0964510000000001 22.1400110000000012 30.8838170000000005 C
  atom 14.0934390000000000 22.3200520000000004 29.4559399999999982 C
  atom 10.9125929999999993 17.2166780000000017 30.8053759999999990 C
  atom 12.6578920000000004 17.4664350000000006 29.6044879999999999 H
  atom 9.9885249999999992 19.1748270000000005 31.8263379999999998 C
  atom 11.0536180000000002 21.3840849999999989 31.4525159999999993 C
  atom 12.1753719999999994 23.5338749999999983 31.0652119999999989 C
  atom 14.8338710000000003 21.8497860000000017 28.8129659999999994 H
  atom 14.1272660000000005 23.6567110000000014 29.6581709999999994 C
  atom 10.8762139999999992 16.1384870000000014 30.6622200000000014 H
  atom 9.9546969999999995 17.8381679999999996 31.6241069999999986 C
  atom 9.2480919999999998 19.6450929999999993 32.4693120000000022 H
  atom 10.0016060000000007 22.0306609999999985 32.2822779999999980 C
  atom 11.4240720000000007 24.0284440000000004 31.6777900000000017 H
  atom 13.1693709999999999 24.2782009999999993 30.4769030000000001 C
  atom 14.8976430000000004 24.2598680000000009 29.1791890000000009 H
  atom 9.1843199999999996 17.2350110000000001 32.1030889999999971 H
  atom 8.6890830000000001 22.0884509999999992 31.8422720000000012 C
  atom 10.3041780000000003 22.5852409999999999 33.5263089999999977 C
  atom 13.2057490000000008 25.3563909999999986 30.6200580000000002 H
  atom 8.4317080000000004 21.6796450000000007 30.8642070000000004 H
  atom 7.7008650000000003 22.6649080000000005 32.6242340000000013 C
  atom 9.3181729999999998 23.1710710000000013 34.2886600000000001 C
  atom 11.3296229999999998 22.5487709999999986 33.8968210000000028 H
  atom 6.6750850000000002 22.6915380000000013 32.2567850000000007 H
  atom 8.0211179999999995 23.2112699999999990 33.8449770000000001 C
  atom 9.5725259999999999 23.6148999999999987 35.2503019999999978 H
  atom 7.2479089999999999 23.6731200000000008 34.4574319999999972 H
  
  -----------------------------------------------------------------------
  Completed first pass over input file geometry.in .
  -----------------------------------------------------------------------
  

  Basic array size parameters:
  | Number of species                 :        2
  | Number of atoms                   :       44
  | Max. basis fn. angular momentum   :        4
  | Max. atomic/ionic basis occupied n:        2
  | Max. number of basis fn. types    :        2
  | Max. radial fns per species/type  :        8
  | Max. logarithmic grid size        :     1277
  | Max. radial integration grid size :       69
  | Max. angular integration grid size:      434
  | Max. angular grid division number :        8
  | Radial grid for Hartree potential :     1277
  | Number of spin channels           :        1

------------------------------------------------------------
          Reading file control.in.
------------------------------------------------------------
  XC: Using PBE gradient-corrected functionals.
  Scalar relativistic treatment of kinetic energy: ZORA.
  Threshold value for ZORA:   0.100000E-11
  Occupation type: Gaussian broadening, width =   0.100000E-03 eV.
  Since 'load_balancing .true.' is present in control.in, automatically turning on 'use_local_index .true.'.
  Using load balancing for integrations.
  Kohn-Sham electronic structure solved by the ELSI library.
  Using pulay charge density mixing.
  Pulay mixing - number of memorized iterations:    5
  Charge density mixing - mixing parameter:     0.4000
  Convergence accuracy of total energy:  0.1000E-05
  Convergence accuracy of sum of eigenvalues:  0.1000E-03
  Convergence accuracy of self-consistent charge density:  0.1000E-05
  Maximum number of s.-c. iterations  :   100
  * Ignoring prodbas_threshold
  Threshold for basis singularities:  0.1000E-04
  override_illconditioning: Explicitly overriding any built-in checks for an ill-conditioned overlap matrix.
  *** WARNING: If you use this flag, you should really know what you are doing.
  *** DO NOT keep this flag set by default in all your control.in files.
  Using 1D integrations for auxiliary 2-center integrals.
  Spin treatment: No spin polarisation.
  Charge =   0.000000E+00: Neutral system requested explicitly.
 
  Reading configuration options for species H                   .
  | Found nuclear charge :   1.0000
  | Found atomic mass :    1.00794000000000      amu
  | Found l_max for Hartree potential  :   6
  | Found cutoff potl. onset [A], width [A], scale factor :    4.00000    2.00000    1.00000
  | Threshold for basis-dependent cutoff potential is   0.100000E-03
  | Found data for basic radial integration grid :    24 points, outermost radius =    7.000 A
  | Found multiplier for basic radial grid :   2
  | Found angular grid specification: user-specified.
  | Specified grid contains     6 separate shells.
  | Check grid settings after all constraints further below.
  | Found free-atom valence shell :  1 s   1.000
  | No ionic wave fns used. Skipping ion_occ.
  | Found hydrogenic basis function :  2 s   2.100
  | Found hydrogenic basis function :  2 p   3.500
  | Found hydrogenic basis function :  1 s   0.850
  | Found hydrogenic basis function :  2 p   3.700
  | Found hydrogenic basis function :  2 s   1.200
  | Found hydrogenic basis function :  3 d   7.000
  Species H                   : Missing cutoff potential type.
  Defaulting to exp(1/x)/(1-x)^2 type cutoff potential.
  Species H : No 'logarithmic' tag. Using default grid for free atom:
  | Default logarithmic grid data [bohr] : 0.1000E-03 0.1000E+03 0.1012E+01
  Species H : On-site basis accuracy parameter (for Gram-Schmidt orthonormalisation) not specified.
  Using default value basis_acc =  0.1000000E-03.
  Species H                   : Using default innermost maximum threshold i_radial=  2 for radial functions.
  Species H                   : Default cutoff onset for free atom density etc. : 0.40000000E+01 AA.
  Species H                   : Basic radial grid will be enhanced according to radial_multiplier =   2, to contain    49 grid points.
 
  Reading configuration options for species C                   .
  | Found nuclear charge :   6.0000
  | Found atomic mass :    12.0107000000000      amu
  | Found l_max for Hartree potential  :   6
  | Found cutoff potl. onset [A], width [A], scale factor :    4.00000    2.00000    1.00000
  | Threshold for basis-dependent cutoff potential is   0.100000E-03
  | Found data for basic radial integration grid :    34 points, outermost radius =    7.000 A
  | Found multiplier for basic radial grid :   2
  | Found angular grid specification: user-specified.
  | Specified grid contains     6 separate shells.
  | Check grid settings after all constraints further below.
  | Found free-atom valence shell :  2 s   2.000
  | Found free-atom valence shell :  2 p   2.000
  | No ionic wave fns used. Skipping ion_occ.
  | No ionic wave fns used. Skipping ion_occ.
  | Found hydrogenic basis function :  2 p   1.700
  | Found hydrogenic basis function :  3 d   6.000
  | Found hydrogenic basis function :  2 s   4.900
  | Found hydrogenic basis function :  4 f   9.800
  | Found hydrogenic basis function :  3 p   5.200
  | Found hydrogenic basis function :  3 s   4.300
  | Found hydrogenic basis function :  5 g  14.400
  | Found hydrogenic basis function :  3 d   6.200
  Species C                   : Missing cutoff potential type.
  Defaulting to exp(1/x)/(1-x)^2 type cutoff potential.
  Species C : No 'logarithmic' tag. Using default grid for free atom:
  | Default logarithmic grid data [bohr] : 0.1000E-03 0.1000E+03 0.1012E+01
  Species C : On-site basis accuracy parameter (for Gram-Schmidt orthonormalisation) not specified.
  Using default value basis_acc =  0.1000000E-03.
  Species C                   : Using default innermost maximum threshold i_radial=  2 for radial functions.
  Species C                   : Default cutoff onset for free atom density etc. : 0.40000000E+01 AA.
  Species C                   : Basic radial grid will be enhanced according to radial_multiplier =   2, to contain    69 grid points.
 
  Finished reading input file 'control.in'. Consistency checks are next.
 
  MPI_IN_PLACE appears to work with this MPI implementation.
  | Keeping use_mpi_in_place .true. (see manual).
  Target number of points in a grid batch is not set. Defaulting to  100
  Method for grid partitioning is not set. Defaulting to parallel hash+maxmin partitioning.
  Batch size limit is not set. Defaulting to    200
  By default, will store active basis functions for each batch.
  If in need of memory, prune_basis_once .false. can be used to disable this option.
  communication_type for Hartree potential was not specified.
  Defaulting to calc_hartree .
  Pulay mixer: Number of initial linear mixing iterations not set.
  Defaulting to    0 iterations.
  Work space size for distributed Hartree potential not set.
  Defaulting to   0.200000E+03 MB.
  Algorithm-dependent basis array size parameters:
  | n_max_pulay                         :        5
  Presetting      1001 iterations before the initial mixing cycle
  is restarted anyway using the sc_init_iter criterion / keyword.
  Presetting a factor      1.000 between actual scf density residual
  and density convergence criterion sc_accuracy_rho below which sc_init_iter
  takes no effect.
  Calculation of forces was not defined in control.in. No forces will be calculated.
  Geometry relaxation not requested: no relaxation will be performed.
  No accuracy limit for integral partition fn. given. Defaulting to  0.1000E-14.
  No threshold value for u(r) in integrations given. Defaulting to  0.1000E-05.
  No accuracy for occupation numbers given. Defaulting to  0.1000E-12.
  No threshold value for occupation numbers given. Defaulting to  0.0000E+00.
  No accuracy for fermi level given. Defaulting to  0.1000E-19.
  Maximum # of iterations to find E_F not set. Defaulting to  200.
  Will not use alltoall communication since running on < 1024 CPUs.
  partition_type (choice of integration weights) for integrals was not specified.
  | Using a version of the partition function of Stratmann and coworkers ('stratmann_sparse').
  | At each grid point, the set of atoms used to build the partition table is smoothly restricted to
  | only those atoms whose free-atom density would be non-zero at that grid point.
  Partitioning for Hartree potential was not defined. Using partition_type for integrals.
  | Adjusted default value of keyword multip_moments_threshold to:       0.10000000E-11
  | This value may affect high angular momentum components of the Hartree potential in periodic systems.
  No q(lm)/r^(l+1) cutoff set for long-range Hartree potential.
  | Using default value of  0.100000E-09 .
  | Verify using the multipole_threshold keyword.
  Defaulting to new monopole extrapolation.
  Density update method: automatic selection selected.
 * Warning: use_local_index and/or load_balancing needs packed_matrix_format = index
 * Changing the default setting to packed_matrix_format = index
------------------------------------------------------------


------------------------------------------------------------
          Reading geometry description geometry.in.
------------------------------------------------------------
  Input structure read successfully.
  The structure contains       44 atoms,  and a total of        174.000 electrons.

  Input geometry:
  | No unit cell requested.
  | Atomic structure:
  |       Atom                x [A]            y [A]            z [A]
  |    1: Species H            15.65025500       19.81523300       30.41807200
  |    2: Species C            15.39288100       19.40642800       29.44000600
  |    3: Species C            14.08035700       19.46421800       29.00000000
  |    4: Species C            16.38109800       18.82997100       28.65804500
  |    5: Species C            13.77778600       18.90963800       27.75596900
  |    6: Species C            13.02834600       20.11079400       29.82976200
  |    7: Species C            16.06084500       18.28360900       27.43730200
  |    8: Species H            17.40687900       18.80334100       29.02549300
  |    9: Species H            12.75234100       18.94610700       27.38545700
  |   10: Species C            14.76379100       18.32380800       26.99361800
  |   11: Species C            11.98551300       19.35486800       30.39846100
  |   12: Species C            13.08469900       21.50011000       30.05895700
  |   13: Species H            16.83405500       17.82175900       26.82484600
  |   14: Species H            14.50943800       17.87997900       26.03197600
  |   15: Species C            11.90659100       17.96100400       30.21706600
  |   16: Species C            10.99726400       19.99476900       31.22332100
  |   17: Species C            12.09645100       22.14001100       30.88381700
  |   18: Species C            14.09343900       22.32005200       29.45594000
  |   19: Species C            10.91259300       17.21667800       30.80537600
  |   20: Species H            12.65789200       17.46643500       29.60448800
  |   21: Species C             9.98852500       19.17482700       31.82633800
  |   22: Species C            11.05361800       21.38408500       31.45251600
  |   23: Species C            12.17537200       23.53387500       31.06521200
  |   24: Species H            14.83387100       21.84978600       28.81296600
  |   25: Species C            14.12726600       23.65671100       29.65817100
  |   26: Species H            10.87621400       16.13848700       30.66222000
  |   27: Species C             9.95469700       17.83816800       31.62410700
  |   28: Species H             9.24809200       19.64509300       32.46931200
  |   29: Species C            10.00160600       22.03066100       32.28227800
  |   30: Species H            11.42407200       24.02844400       31.67779000
  |   31: Species C            13.16937100       24.27820100       30.47690300
  |   32: Species H            14.89764300       24.25986800       29.17918900
  |   33: Species H             9.18432000       17.23501100       32.10308900
  |   34: Species C             8.68908300       22.08845100       31.84227200
  |   35: Species C            10.30417800       22.58524100       33.52630900
  |   36: Species H            13.20574900       25.35639100       30.62005800
  |   37: Species H             8.43170800       21.67964500       30.86420700
  |   38: Species C             7.70086500       22.66490800       32.62423400
  |   39: Species C             9.31817300       23.17107100       34.28866000
  |   40: Species H            11.32962300       22.54877100       33.89682100
  |   41: Species H             6.67508500       22.69153800       32.25678500
  |   42: Species C             8.02111800       23.21127000       33.84497700
  |   43: Species H             9.57252600       23.61490000       35.25030200
  |   44: Species H             7.24790900       23.67312000       34.45743200
  |

  | The smallest distance between any two atoms is         1.08756849 AA.
  |
  | The first atom of this pair is atom number                     18 .
  | The second atom of this pair is atom number                    24 .

  Number of empty states per atom not set in control.in - providing a guess from actual geometry.
  | Total number of empty states used during s.c.f. cycle:      105
  If you use a very high smearing, use empty_states (per atom!) in control.in to increase this value.

  Structure-dependent array size parameters: 
  | Maximum number of distinct radial functions  :       18
  | Maximum number of basis functions            :     1284
  | Number of Kohn-Sham states (occupied + empty):      192
------------------------------------------------------------

------------------------------------------------------------
          Preparing all fixed parts of the calculation.
------------------------------------------------------------
  Determining machine precision:
    2.225073858507201E-308
  Setting up grids for atomic and cluster calculations.

  Creating wave function, potential, and density for free atoms.

  Species: H

  List of occupied orbitals and eigenvalues:
    n    l              occ      energy [Ha]    energy [eV]
    1    0           1.0000        -0.238386        -6.4868


  Species: C

  List of occupied orbitals and eigenvalues:
    n    l              occ      energy [Ha]    energy [eV]
    1    0           2.0000       -10.049212      -273.4530
    2    0           2.0000        -0.504761       -13.7352
    2    1           2.0000        -0.193631        -5.2690

  Creating fixed part of basis set: Ionic, confined, hydrogenic.
 
  H                    hydrogenic:
 
  List of hydrogenic basis orbitals: 
    n    l      effective z      eigenvalue [eV]  inner max. [A]     outer max. [A]     outer radius [A]   
    2    0         2.100000       -14.9965           0.193243           1.317208           5.373006
    2    1         3.500000       -41.6672           0.602369           0.602369           4.056063
    1    0         0.850000        -9.8292           0.624871           0.624871           5.373006
    2    1         3.700000       -46.5653           0.573622           0.573622           3.910002
    2    0         1.200000        -4.5995           0.334980           2.228188           5.505995
    3    2         7.000000       -74.0753           0.680699           0.680699           3.769201
 
 
  C                    hydrogenic:
 
  List of hydrogenic basis orbitals: 
    n    l      effective z      eigenvalue [eV]  inner max. [A]     outer max. [A]     outer radius [A]   
    2    1         1.700000        -9.8152           1.245706           1.245706           5.401630
    3    2         6.000000       -54.4226           0.792453           0.792453           4.178599
    2    0         4.900000       -81.6681           0.082559           0.562749           3.353238
    4    3         9.800000       -81.6681           0.863254           0.863254           4.028125
    3    1         5.200000       -40.8774           0.305389           1.215618           4.898362
    3    0         4.300000       -27.9508           0.091041           1.610311           5.401630
    5    4        14.400000      -112.8510           0.917666           0.917666           3.883070
    3    2         6.200000       -58.1113           0.763917           0.763917           4.077671
 

  Adding cutoff potential to free-atom effective potential.
  Creating atomic-like basis functions for current effective potential.

  Species H                   :

  List of atomic basis orbitals and eigenvalues:
    n    l      energy [Ha]    energy [eV]    outer radius [A]
    1    0        -0.238386        -6.4868       5.373006


  Species C                   :

  List of atomic basis orbitals and eigenvalues:
    n    l      energy [Ha]    energy [eV]    outer radius [A]
    1    0       -10.049212      -273.4530       1.934409
    2    0        -0.504761       -13.7352       5.271162
    2    1        -0.193631        -5.2690       5.401630

  Assembling full basis from fixed parts.
  | Species H :   atomic orbital   1 s accepted.
  | Species H :    hydro orbital   2 s accepted.
  | Species H :    hydro orbital   1 s accepted.
  | Species H :    hydro orbital   2 s accepted.
  | Species H :    hydro orbital   2 p accepted.
  | Species H :    hydro orbital   2 p accepted.
  | Species H :    hydro orbital   3 d accepted.
  | Species C :   atomic orbital   1 s accepted.
  | Species C :    hydro orbital   2 s accepted.
  | Species C :   atomic orbital   2 s accepted.
  | Species C :    hydro orbital   3 s accepted.
  | Species C :    hydro orbital   3 p accepted.
  | Species C :   atomic orbital   2 p accepted.
  | Species C :    hydro orbital   2 p accepted.
  | Species C :    hydro orbital   3 d accepted.
  | Species C :    hydro orbital   3 d accepted.
  | Species C :    hydro orbital   4 f accepted.
  | Species C :    hydro orbital   5 g accepted.
 
  Basis size parameters after reduction:
  | Total number of radial functions:       18
  | Total number of basis functions :     1284
 
  Per-task memory consumption for arrays in subroutine allocate_ext:
  |           4.443656MB.
  Testing on-site integration grid accuracy.
  |  Species  Function  <phi|h_atom|phi> (log., in eV)  <phi|h_atom|phi> (rad., in eV)
           1        1                 -6.4870767962                 -6.4871688290
           1        2                 13.5032046589                 13.5028982997
           1        3                 32.8195184817                 32.8119941656
           1        4                 33.8513856511                 33.7670005767 ***
           1        5                 28.8544614965                 28.8544615203
           1        6                 59.6326952547                 59.6327656460
           1        7                 60.2719308513                 60.2719305949
           2        8               -273.4529726040               -273.4529710464
           2        9                -10.7721037319                -10.7721022101
           2       10                 17.6044132601                 17.6044162063
           2       11                 53.7706460658                 53.7706913770
           2       12                 15.0973290362                 15.0973256030
           2       13                  3.8545134692                  3.8545724687
           2       14                 12.1156992592                 12.1182024431
           2       15                 29.4352039302                 29.4352041816
           2       16                 54.8741144708                 54.8740268729
           2       17                 59.3556032049                 59.3556031382
           2       18                 93.4551837154                 93.4551838009
 * Note: Onsite integrals marked "***" above are less accurate than
 * onsite_accuracy_threshold =    0.03000 eV. Usually, this is harmless.
 * When in doubt, tighten the "radial" and/or "radial_multiplier" flags to check.

  Preparing densities etc. for the partition functions (integrals / Hartree potential).

  Preparations completed.
  max(cpu_time)          :      0.218 s.
  Wall clock time (cpu1) :      0.265 s.
------------------------------------------------------------

------------------------------------------------------------
          Begin self-consistency loop: Initialization.

          Date     :  20210620, Time     :  165121.167
------------------------------------------------------------

  Initializing index lists of integration centers etc. from given atomic structure:
  | Number of centers in hartree potential         :        44
  | Number of centers in hartree multipole         :        44
  | Number of centers in electron density summation:        44
  | Number of centers in basis integrals           :        44
  | Number of centers in integrals                 :        44
  | Number of centers in hamiltonian               :        44
  * Using 56 tasks for Scalapack Eigenvalue solver.
  Detailed listing of tasks and assigned k-points:
  (for non-periodic systems, the "k-point" denotes an internal label only)
   Task     0 k-point     1 on d021
   Task     1 k-point     1 on d021
   Task     2 k-point     1 on d021
   Task     3 k-point     1 on d021
   Task     4 k-point     1 on d021
   Task     5 k-point     1 on d021
   Task     6 k-point     1 on d021
   Task     7 k-point     1 on d021
   Task     8 k-point     1 on d021
   Task     9 k-point     1 on d021
   Task    10 k-point     1 on d021
   Task    11 k-point     1 on d021
   Task    12 k-point     1 on d021
   Task    13 k-point     1 on d021
   Task    14 k-point     1 on d021
   Task    15 k-point     1 on d021
   Task    16 k-point     1 on d021
   Task    17 k-point     1 on d021
   Task    18 k-point     1 on d021
   Task    19 k-point     1 on d021
   Task    20 k-point     1 on d021
   Task    21 k-point     1 on d021
   Task    22 k-point     1 on d021
   Task    23 k-point     1 on d021
   Task    24 k-point     1 on d021
   Task    25 k-point     1 on d021
   Task    26 k-point     1 on d021
   Task    27 k-point     1 on d021
   Task    28 k-point     1 on d021
   Task    29 k-point     1 on d021
   Task    30 k-point     1 on d021
   Task    31 k-point     1 on d021
   Task    32 k-point     1 on d021
   Task    33 k-point     1 on d021
   Task    34 k-point     1 on d021
   Task    35 k-point     1 on d021
   Task    36 k-point     1 on d021
   Task    37 k-point     1 on d021
   Task    38 k-point     1 on d021
   Task    39 k-point     1 on d021
   Task    40 k-point     1 on d021
   Task    41 k-point     1 on d021
   Task    42 k-point     1 on d021
   Task    43 k-point     1 on d021
   Task    44 k-point     1 on d021
   Task    45 k-point     1 on d021
   Task    46 k-point     1 on d021
   Task    47 k-point     1 on d021
   Task    48 k-point     1 on d021
   Task    49 k-point     1 on d021
   Task    50 k-point     1 on d021
   Task    51 k-point     1 on d021
   Task    52 k-point     1 on d021
   Task    53 k-point     1 on d021
   Task    54 k-point     1 on d021
   Task    55 k-point     1 on d021
  Tasks:    56 split into      8 X      7 BLACS grid
  Calculating block size based on n_basis =         1284 max_nprow =            8 max_npcol =            7
  ScaLAPACK block size set to:           16
  Allocating        0.252 MB for ovlp
  Allocating        0.252 MB for ham
  Allocating        0.252 MB for eigenvec
  Required Scalapack workspace - INTEGER:            1 REAL:             1
  Partitioning the integration grid into batches with parallel hashing+maxmin method.
  | Number of batches:     6338
  | Maximal batch size:     200
  | Minimal batch size:       9
  | Average batch size:     115.198
  | Standard deviation of batch sizes:      35.826

  Integration load balanced across     56 MPI tasks.
  Work distribution over tasks is as follows:
  Task      0 has      13112 integration points.
  Task      1 has      13141 integration points.
  Task      2 has      12973 integration points.
  Task      3 has      13038 integration points.
  Task      4 has      13031 integration points.
  Task      5 has      13058 integration points.
  Task      6 has      12959 integration points.
  Task      7 has      13105 integration points.
  Task      8 has      13039 integration points.
  Task      9 has      13019 integration points.
  Task     10 has      13129 integration points.
  Task     11 has      12957 integration points.
  Task     12 has      13009 integration points.
  Task     13 has      12998 integration points.
  Task     14 has      13053 integration points.
  Task     15 has      13117 integration points.
  Task     16 has      12986 integration points.
  Task     17 has      13176 integration points.
  Task     18 has      13000 integration points.
  Task     19 has      13111 integration points.
  Task     20 has      12884 integration points.
  Task     21 has      13188 integration points.
  Task     22 has      12983 integration points.
  Task     23 has      12927 integration points.
  Task     24 has      13090 integration points.
  Task     25 has      13014 integration points.
  Task     26 has      13024 integration points.
  Task     27 has      12943 integration points.
  Task     28 has      13099 integration points.
  Task     29 has      13155 integration points.
  Task     30 has      13039 integration points.
  Task     31 has      13078 integration points.
  Task     32 has      13070 integration points.
  Task     33 has      13004 integration points.
  Task     34 has      12914 integration points.
  Task     35 has      13128 integration points.
  Task     36 has      13175 integration points.
  Task     37 has      12831 integration points.
  Task     38 has      13171 integration points.
  Task     39 has      13076 integration points.
  Task     40 has      13067 integration points.
  Task     41 has      12793 integration points.
  Task     42 has      13073 integration points.
  Task     43 has      13064 integration points.
  Task     44 has      13023 integration points.
  Task     45 has      13148 integration points.
  Task     46 has      12944 integration points.
  Task     47 has      13018 integration points.
  Task     48 has      12989 integration points.
  Task     49 has      13088 integration points.
  Task     50 has      13038 integration points.
  Task     51 has      12964 integration points.
  Task     52 has      13108 integration points.
  Task     53 has      12989 integration points.
  Task     54 has      13065 integration points.
  Task     55 has      12953 integration points.
  Initializing partition tables, free-atom densities, potentials, etc. across the integration grid (initialize_grid_storage).
  | initialize_grid_storage: Actual outermost partition radius vs. multipole_radius_free
  | (-- VB: in principle, multipole_radius_free should be larger, hence this output)
  | Species        1: Confinement radius =              6.000000000000000 AA, multipole_radius_free =              6.071692442739658 AA.
  | Species        1: outer_partition_radius set to              6.071692442739658 AA .
  | Species        2: Confinement radius =              6.000000000000000 AA, multipole_radius_free =              6.029870734432609 AA.
  | Species        2: outer_partition_radius set to              6.029870734432609 AA .
  | The sparse table of interatomic distances needs     22.8840 kbyte instead of    15.4880 kbyte of memory.
  | Using the partition_type stratmann_smoother will reduce your memory usage.
  | Net number of integration points:   730128
  | of which are non-zero points    :   580850
  Renormalizing the initial density to the exact electron count on the 3D integration grid.
  | Initial density: Formal number of electrons (from input files) :     174.0000000000
  | Integrated number of electrons on 3D grid     :     174.0003292873
  | Charge integration error                      :       0.0003292873
  | Normalization factor for density and gradient :       0.9999981075
  Obtaining max. number of non-zero basis functions in each batch (get_n_compute_maxes).
  | Maximal number of non-zero basis functions:      968
  Selecting the method for density update.
  Loop over occupied states selected for charge density update.
  Hamiltonian matrix size:
  | Size of matrix non-packed:                824970
  | Size of matrix packed:          763514
  Allocating        1.972 MB for KS_eigenvector
  use_local_index: Max. local matrix size =       626483
  Task:     0 matrix size:     164216
  Task:     1 matrix size:     518609
  Task:     2 matrix size:     521225
  Task:     3 matrix size:     373454
  Task:     4 matrix size:     577747
  Task:     5 matrix size:     327198
  Task:     6 matrix size:     611571
  Task:     7 matrix size:     360217
  Task:     8 matrix size:     342762
  Task:     9 matrix size:     290129
  Task:    10 matrix size:     369726
  Task:    11 matrix size:     350069
  Task:    12 matrix size:     617256
  Task:    13 matrix size:     598111
  Task:    14 matrix size:     219917
  Task:    15 matrix size:     244615
  Task:    16 matrix size:     413306
  Task:    17 matrix size:      97020
  Task:    18 matrix size:     146611
  Task:    19 matrix size:     190634
  Task:    20 matrix size:     227429
  Task:    21 matrix size:     337318
  Task:    22 matrix size:     462634
  Task:    23 matrix size:     238326
  Task:    24 matrix size:     406633
  Task:    25 matrix size:     512919
  Task:    26 matrix size:     572978
  Task:    27 matrix size:     548437
  Task:    28 matrix size:     573808
  Task:    29 matrix size:     354476
  Task:    30 matrix size:     581481
  Task:    31 matrix size:     339835
  Task:    32 matrix size:     493035
  Task:    33 matrix size:     376438
  Task:    34 matrix size:     335419
  Task:    35 matrix size:     179082
  Task:    36 matrix size:     150426
  Task:    37 matrix size:      77421
  Task:    38 matrix size:     413306
  Task:    39 matrix size:     267333
  Task:    40 matrix size:     263386
  Task:    41 matrix size:     143364
  Task:    42 matrix size:     618555
  Task:    43 matrix size:     549214
  Task:    44 matrix size:     277955
  Task:    45 matrix size:     288609
  Task:    46 matrix size:     359323
  Task:    47 matrix size:     401111
  Task:    48 matrix size:     186929
  Task:    49 matrix size:     608322
  Task:    50 matrix size:     416215
  Task:    51 matrix size:     311950
  Task:    52 matrix size:     626483
  Task:    53 matrix size:     505639
  Task:    54 matrix size:     244591
  Task:    55 matrix size:     268735
  Integrating Hamiltonian matrix: batch-based integration.
  Time summed over all CPUs for integration: real work      122.093 s, elapsed      221.712 s
  Time get_set_sparse_local_matrix_scalapack:     0.013052 s
  Start compute_balanced_batch_distribution
  Done load balancing, time needed:      0.007 s
  Integrating overlap matrix with loadbalancing
  Time summed over all CPUs for integration: real work       33.999 s, elapsed       40.424 s
  Time get_set_full_local_matrix_scalapack:     0.014734 s

  Updating Kohn-Sham eigenvalues and eigenvectors using ELSI and the ELPA eigensolver.
  Overlap matrix is not singular
  | Lowest and highest eigenvalues :  0.12E+02,  0.88E-04
  Finished singularity check of overlap matrix
  | Time :     0.073 s
  Finished Cholesky decomposition
  | Time :     0.016 s
  Finished transformation to standard eigenproblem
  | Time :     0.011 s
  Starting ELPA eigensolver
  Finished solving standard eigenproblem
  | Time :     0.071 s
  Finished back-transformation of eigenvectors
  | Time :     0.003 s

  Obtaining occupation numbers and chemical potential using ELSI.
  | Chemical potential (Fermi level):    -8.36455401 eV
  Writing Kohn-Sham eigenvalues.

  State    Occupation    Eigenvalue [Ha]    Eigenvalue [eV]
      1       2.00000         -10.176527         -276.91739
      2       2.00000         -10.176527         -276.91739
      3       2.00000         -10.175961         -276.90199
      4       2.00000         -10.175961         -276.90198
      5       2.00000         -10.174833         -276.87128
      6       2.00000         -10.174833         -276.87128
      7       2.00000         -10.174003         -276.84870
      8       2.00000         -10.174003         -276.84870
      9       2.00000         -10.172647         -276.81181
     10       2.00000         -10.172647         -276.81181
     11       2.00000         -10.172478         -276.80721
     12       2.00000         -10.172478         -276.80721
     13       2.00000         -10.171621         -276.78390
     14       2.00000         -10.171621         -276.78390
     15       2.00000         -10.171510         -276.78086
     16       2.00000         -10.171509         -276.78085
     17       2.00000         -10.171029         -276.76778
     18       2.00000         -10.171029         -276.76778
     19       2.00000         -10.166854         -276.65417
     20       2.00000         -10.166854         -276.65416
     21       2.00000         -10.166849         -276.65403
     22       2.00000         -10.166849         -276.65402
     23       2.00000         -10.163383         -276.55972
     24       2.00000         -10.163381         -276.55967
     25       2.00000         -10.160763         -276.48843
     26       2.00000         -10.160762         -276.48840
     27       2.00000          -1.018027          -27.70192
     28       2.00000          -1.005437          -27.35934
     29       2.00000          -0.998607          -27.17348
     30       2.00000          -0.988310          -26.89328
     31       2.00000          -0.945322          -25.72351
     32       2.00000          -0.936596          -25.48608
     33       2.00000          -0.895473          -24.36707
     34       2.00000          -0.891887          -24.26948
     35       2.00000          -0.890141          -24.22198
     36       2.00000          -0.888061          -24.16537
     37       2.00000          -0.884950          -24.08070
     38       2.00000          -0.876306          -23.84551
     39       2.00000          -0.842345          -22.92136
     40       2.00000          -0.791995          -21.55127
     41       2.00000          -0.771451          -20.99225
     42       2.00000          -0.768762          -20.91907
     43       2.00000          -0.752684          -20.48157
     44       2.00000          -0.749541          -20.39605
     45       2.00000          -0.746459          -20.31219
     46       2.00000          -0.733528          -19.96032
     47       2.00000          -0.713820          -19.42404
     48       2.00000          -0.686650          -18.68469
     49       2.00000          -0.674556          -18.35561
     50       2.00000          -0.668494          -18.19064
     51       2.00000          -0.659314          -17.94084
     52       2.00000          -0.636376          -17.31668
     53       2.00000          -0.635219          -17.28519
     54       2.00000          -0.634284          -17.25973
     55       2.00000          -0.618423          -16.82816
     56       2.00000          -0.615323          -16.74379
     57       2.00000          -0.601698          -16.37305
     58       2.00000          -0.591620          -16.09880
     59       2.00000          -0.577625          -15.71798
     60       2.00000          -0.576947          -15.69951
     61       2.00000          -0.574728          -15.63915
     62       2.00000          -0.573508          -15.60595
     63       2.00000          -0.567148          -15.43287
     64       2.00000          -0.566454          -15.41401
     65       2.00000          -0.565950          -15.40029
     66       2.00000          -0.559403          -15.22212
     67       2.00000          -0.528943          -14.39328
     68       2.00000          -0.526993          -14.34022
     69       2.00000          -0.516688          -14.05980
     70       2.00000          -0.511068          -13.90687
     71       2.00000          -0.509954          -13.87655
     72       2.00000          -0.508333          -13.83243
     73       2.00000          -0.500610          -13.62229
     74       2.00000          -0.499087          -13.58086
     75       2.00000          -0.498358          -13.56100
     76       2.00000          -0.496662          -13.51487
     77       2.00000          -0.495305          -13.47793
     78       2.00000          -0.480374          -13.07163
     79       2.00000          -0.447459          -12.17599
     80       2.00000          -0.438344          -11.92795
     81       2.00000          -0.410010          -11.15693
     82       2.00000          -0.407008          -11.07525
     83       2.00000          -0.406232          -11.05414
     84       2.00000          -0.405285          -11.02836
     85       2.00000          -0.402509          -10.95284
     86       2.00000          -0.394045          -10.72252
     87       2.00000          -0.348724           -9.48925
     88       0.00000          -0.265925           -7.23618
     89       0.00000          -0.220049           -5.98784
     90       0.00000          -0.214957           -5.84928
     91       0.00000          -0.213638           -5.81338
     92       0.00000          -0.212416           -5.78014
     93       0.00000          -0.208328           -5.66888
     94       0.00000          -0.200026           -5.44298
     95       0.00000          -0.164622           -4.47960
     96       0.00000          -0.151114           -4.11203
     97       0.00000          -0.077749           -2.11566
     98       0.00000          -0.072263           -1.96637
     99       0.00000          -0.071379           -1.94231
    100       0.00000          -0.069742           -1.89779
    101       0.00000          -0.067495           -1.83662
    102       0.00000          -0.064577           -1.75722
    103       0.00000          -0.058593           -1.59441
    104       0.00000          -0.047848           -1.30201
    105       0.00000          -0.038315           -1.04262
    106       0.00000          -0.037988           -1.03372
    107       0.00000          -0.037030           -1.00764
    108       0.00000          -0.028820           -0.78423
    109       0.00000          -0.024885           -0.67716
    110       0.00000          -0.021673           -0.58976
    111       0.00000          -0.021065           -0.57322
    112       0.00000          -0.009926           -0.27009
    113       0.00000          -0.006878           -0.18716
    114       0.00000          -0.004780           -0.13007
    115       0.00000          -0.003444           -0.09372
    116       0.00000           0.001906            0.05186
    117       0.00000           0.006150            0.16736
    118       0.00000           0.008171            0.22235
    119       0.00000           0.018283            0.49751
    120       0.00000           0.021331            0.58045
    121       0.00000           0.022348            0.60812
    122       0.00000           0.023962            0.65204
    123       0.00000           0.043187            1.17517
    124       0.00000           0.046067            1.25354
    125       0.00000           0.048093            1.30867
    126       0.00000           0.051093            1.39030
    127       0.00000           0.057246            1.55775
    128       0.00000           0.057321            1.55978
    129       0.00000           0.058411            1.58944
    130       0.00000           0.059991            1.63243
    131       0.00000           0.065008            1.76895
    132       0.00000           0.065818            1.79100
    133       0.00000           0.067275            1.83066
    134       0.00000           0.069488            1.89086
    135       0.00000           0.070675            1.92316
    136       0.00000           0.075270            2.04820
    137       0.00000           0.078604            2.13892
    138       0.00000           0.084412            2.29696
    139       0.00000           0.086445            2.35230
    140       0.00000           0.089966            2.44809
    141       0.00000           0.093093            2.53320
    142       0.00000           0.093529            2.54505
    143       0.00000           0.093887            2.55479
    144       0.00000           0.099686            2.71261
    145       0.00000           0.105937            2.88269
    146       0.00000           0.109572            2.98159
    147       0.00000           0.111107            3.02336
    148       0.00000           0.113131            3.07846
    149       0.00000           0.114808            3.12409
    150       0.00000           0.117633            3.20096
    151       0.00000           0.122101            3.32253
    152       0.00000           0.123943            3.37267
    153       0.00000           0.126330            3.43761
    154       0.00000           0.130612            3.55414
    155       0.00000           0.132621            3.60880
    156       0.00000           0.135049            3.67487
    157       0.00000           0.140493            3.82301
    158       0.00000           0.141129            3.84031
    159       0.00000           0.142751            3.88445
    160       0.00000           0.144298            3.92656
    161       0.00000           0.148288            4.03513
    162       0.00000           0.156547            4.25985
    163       0.00000           0.158501            4.31303
    164       0.00000           0.159663            4.34464
    165       0.00000           0.163897            4.45988
    166       0.00000           0.167354            4.55394
    167       0.00000           0.168358            4.58125
    168       0.00000           0.170690            4.64471
    169       0.00000           0.179553            4.88589
    170       0.00000           0.181251            4.93210
    171       0.00000           0.182568            4.96793
    172       0.00000           0.183750            5.00009
    173       0.00000           0.190423            5.18169
    174       0.00000           0.191430            5.20908
    175       0.00000           0.193919            5.27680
    176       0.00000           0.198092            5.39035
    177       0.00000           0.202878            5.52059
    178       0.00000           0.205362            5.58819
    179       0.00000           0.207303            5.64101
    180       0.00000           0.221015            6.01413
    181       0.00000           0.222855            6.06419
    182       0.00000           0.223000            6.06815
    183       0.00000           0.224186            6.10042
    184       0.00000           0.225319            6.13124
    185       0.00000           0.229408            6.24251
    186       0.00000           0.234239            6.37396
    187       0.00000           0.239390            6.51412
    188       0.00000           0.242361            6.59497
    189       0.00000           0.242995            6.61224
    190       0.00000           0.249476            6.78860
    191       0.00000           0.255403            6.94987
    192       0.00000           0.263550            7.17156

  Highest occupied state (VBM) at     -9.48925115 eV
  | Occupation number:      2.00000000

  Lowest unoccupied state (CBM) at    -7.23617606 eV
  | Occupation number:      0.00000000

  Overall HOMO-LUMO gap:      2.25307509 eV.
  Calculating total energy contributions from superposition of free atom densities.

  Total energy components:
  | Sum of eigenvalues            :        -607.68464907 Ha      -16535.94064070 eV
  | XC energy correction          :        -144.05386609 Ha       -3919.90513889 eV
  | XC potential correction       :         185.03742503 Ha        5035.12451932 eV
  | Free-atom electrostatic energy:        -435.77696187 Ha      -11858.09446556 eV
  | Hartree energy correction     :           0.00000000 Ha           0.00000000 eV
  | Entropy correction            :           0.00000000 Ha           0.00000000 eV
  | ---------------------------
  | Total energy                  :       -1002.47805200 Ha      -27278.81572583 eV
  | Total energy, T -> 0          :       -1002.47805200 Ha      -27278.81572583 eV  <-- do not rely on this value for anything but (periodic) metals
  | Electronic free energy        :       -1002.47805200 Ha      -27278.81572583 eV

  Derived energy quantities:
  | Kinetic energy                :         992.56293096 Ha       27009.01155471 eV
  | Electrostatic energy          :       -1850.98711687 Ha      -50367.92214164 eV
  | Energy correction for multipole
  | error in Hartree potential    :           0.00000000 Ha           0.00000000 eV
  | Sum of eigenvalues per atom                           :        -375.81683274 eV
  | Total energy (T->0) per atom                          :        -619.97308468 eV  <-- do not rely on this value for anything but (periodic) metals
  | Electronic free energy per atom                       :        -619.97308468 eV
  Initialize hartree_potential_storage
  Max. number of atoms included in rho_multipole:           44

  End scf initialization - timings             :  max(cpu_time)    wall_clock(cpu1)
  | Time for scf. initialization               :        6.280 s           6.414 s
  | Boundary condition initialization          :        0.001 s           0.017 s
  | Integration                                :        4.729 s           4.740 s
  | Solution of K.-S. eqns.                    :        0.186 s           0.203 s
  | Grid partitioning                          :        0.640 s           0.648 s
  | Preloading free-atom quantities on grid    :        0.013 s           0.016 s
  | Free-atom superposition energy             :        0.056 s           0.056 s
  | Total energy evaluation                    :        0.001 s           0.004 s

  Partial memory accounting:
  | Current value for overall tracked memory usage on task 0  :           3.386 MB
  | Peak value for overall tracked memory usage on task 0     :          26.158 MB after allocating zora_vector2
  | Largest tracked array allocation on task 0 so far         :           7.496 MB  when allocating hamiltonian_shell
  Note:  These values currently only include a subset of arrays which are explicitly tracked.
  The "true" memory usage will be greater.
------------------------------------------------------------

------------------------------------------------------------
          Begin self-consistency iteration #    1

  Date     :  20210620, Time     :  165127.583
------------------------------------------------------------
  Evaluating new KS density.
  Integration grid: deviation in total charge (<rho> - N_e) =   1.136868E-13
  Pulay mixing of updated and previous charge densities.

  Evaluating partitioned Hartree potential by multipole expansion.
  | Analytical far-field extrapolation by fixed multipoles:
  | Hartree multipole sum: apparent total charge =   0.320357E-03
  Summing up the Hartree potential with load balancing.
  Time summed over all CPUs for potential: real work       21.095 s, elapsed       39.164 s
  | RMS charge density error from multipole expansion :   0.121968E-01

  Start compute_balanced_batch_distribution
  Done load balancing, time needed:      0.006 s
  Integrating Hamiltonian matrix: batch-based integration with load balancing
  Time summed over all CPUs for integration: real work      133.595 s, elapsed      154.686 s
  Time get_set_full_local_matrix_scalapack:     0.015219 s
  Start compute_balanced_batch_distribution
  Done load balancing, time needed:      0.006 s

  Updating Kohn-Sham eigenvalues and eigenvectors using ELSI and the ELPA eigensolver.
  Finished transformation to standard eigenproblem
  | Time :     0.011 s
  Starting ELPA eigensolver
  Finished solving standard eigenproblem
  | Time :     0.082 s
  Finished back-transformation of eigenvectors
  | Time :     0.006 s

  Obtaining occupation numbers and chemical potential using ELSI.
  | Chemical potential (Fermi level):    -3.94762397 eV
  Writing Kohn-Sham eigenvalues.

  State    Occupation    Eigenvalue [Ha]    Eigenvalue [eV]
      1       2.00000          -9.987643         -271.77759
      2       2.00000          -9.987643         -271.77759
      3       2.00000          -9.977660         -271.50595
      4       2.00000          -9.977659         -271.50593
      5       2.00000          -9.974693         -271.42520
      6       2.00000          -9.974692         -271.42519
      7       2.00000          -9.972490         -271.36526
      8       2.00000          -9.972490         -271.36526
      9       2.00000          -9.946173         -270.64913
     10       2.00000          -9.946172         -270.64912
     11       2.00000          -9.945405         -270.62824
     12       2.00000          -9.945405         -270.62823
     13       2.00000          -9.943815         -270.58498
     14       2.00000          -9.943815         -270.58498
     15       2.00000          -9.943360         -270.57259
     16       2.00000          -9.943360         -270.57258
     17       2.00000          -9.943009         -270.56303
     18       2.00000          -9.943008         -270.56302
     19       2.00000          -9.942375         -270.54579
     20       2.00000          -9.942375         -270.54579
     21       2.00000          -9.940441         -270.49317
     22       2.00000          -9.940441         -270.49317
     23       2.00000          -9.939484         -270.46713
     24       2.00000          -9.939484         -270.46712
     25       2.00000          -9.938455         -270.43912
     26       2.00000          -9.938455         -270.43912
     27       2.00000          -0.872695          -23.74725
     28       2.00000          -0.845858          -23.01696
     29       2.00000          -0.836180          -22.75362
     30       2.00000          -0.830757          -22.60605
     31       2.00000          -0.791646          -21.54178
     32       2.00000          -0.789994          -21.49682
     33       2.00000          -0.742448          -20.20303
     34       2.00000          -0.740127          -20.13987
     35       2.00000          -0.736101          -20.03034
     36       2.00000          -0.733438          -19.95788
     37       2.00000          -0.729960          -19.86322
     38       2.00000          -0.726040          -19.75654
     39       2.00000          -0.690821          -18.79821
     40       2.00000          -0.646285          -17.58631
     41       2.00000          -0.626369          -17.04437
     42       2.00000          -0.622833          -16.94816
     43       2.00000          -0.609695          -16.59065
     44       2.00000          -0.605514          -16.47688
     45       2.00000          -0.599595          -16.31581
     46       2.00000          -0.590389          -16.06529
     47       2.00000          -0.571832          -15.56033
     48       2.00000          -0.545663          -14.84823
     49       2.00000          -0.536697          -14.60428
     50       2.00000          -0.530848          -14.44510
     51       2.00000          -0.527961          -14.36655
     52       2.00000          -0.498042          -13.55242
     53       2.00000          -0.476637          -12.96995
     54       2.00000          -0.474666          -12.91632
     55       2.00000          -0.472609          -12.86036
     56       2.00000          -0.471727          -12.83634
     57       2.00000          -0.469114          -12.76525
     58       2.00000          -0.462301          -12.57985
     59       2.00000          -0.457042          -12.43675
     60       2.00000          -0.443212          -12.06042
     61       2.00000          -0.439088          -11.94818
     62       2.00000          -0.433236          -11.78894
     63       2.00000          -0.432671          -11.77358
     64       2.00000          -0.431476          -11.74107
     65       2.00000          -0.424593          -11.55378
     66       2.00000          -0.415838          -11.31554
     67       2.00000          -0.404502          -11.00707
     68       2.00000          -0.394161          -10.72566
     69       2.00000          -0.380351          -10.34989
     70       2.00000          -0.378066          -10.28770
     71       2.00000          -0.375506          -10.21804
     72       2.00000          -0.370611          -10.08483
     73       2.00000          -0.368618          -10.03061
     74       2.00000          -0.366230           -9.96562
     75       2.00000          -0.364251           -9.91178
     76       2.00000          -0.360400           -9.80698
     77       2.00000          -0.355839           -9.68287
     78       2.00000          -0.338080           -9.19962
     79       2.00000          -0.318870           -8.67689
     80       2.00000          -0.314478           -8.55739
     81       2.00000          -0.280612           -7.63584
     82       2.00000          -0.275413           -7.49437
     83       2.00000          -0.274474           -7.46880
     84       2.00000          -0.273543           -7.44349
     85       2.00000          -0.270314           -7.35562
     86       2.00000          -0.267481           -7.27854
     87       2.00000          -0.221605           -6.03019
     88       0.00000          -0.140601           -3.82593
     89       0.00000          -0.094724           -2.57758
     90       0.00000          -0.089304           -2.43008
     91       0.00000          -0.088621           -2.41151
     92       0.00000          -0.085896           -2.33736
     93       0.00000          -0.080744           -2.19715
     94       0.00000          -0.070418           -1.91616
     95       0.00000          -0.042218           -1.14882
     96       0.00000          -0.029742           -0.80931
     97       0.00000          -0.024267           -0.66033
     98       0.00000          -0.023712           -0.64524
     99       0.00000          -0.014895           -0.40530
    100       0.00000          -0.012290           -0.33442
    101       0.00000          -0.000212           -0.00578
    102       0.00000          -0.000143           -0.00388
    103       0.00000           0.004481            0.12193
    104       0.00000           0.007314            0.19902
    105       0.00000           0.014766            0.40181
    106       0.00000           0.016786            0.45678
    107       0.00000           0.027444            0.74680
    108       0.00000           0.028883            0.78596
    109       0.00000           0.035180            0.95729
    110       0.00000           0.038005            1.03417
    111       0.00000           0.038676            1.05243
    112       0.00000           0.046162            1.25612
    113       0.00000           0.052340            1.42423
    114       0.00000           0.054950            1.49526
    115       0.00000           0.059207            1.61111
    116       0.00000           0.059567            1.62089
    117       0.00000           0.067099            1.82585
    118       0.00000           0.081728            2.22394
    119       0.00000           0.081944            2.22980
    120       0.00000           0.090273            2.45645
    121       0.00000           0.102806            2.79749
    122       0.00000           0.105314            2.86573
    123       0.00000           0.111416            3.03179
    124       0.00000           0.118603            3.22735
    125       0.00000           0.118617            3.22772
    126       0.00000           0.119096            3.24077
    127       0.00000           0.119893            3.26244
    128       0.00000           0.121582            3.30843
    129       0.00000           0.124270            3.38157
    130       0.00000           0.126509            3.44249
    131       0.00000           0.130268            3.54477
    132       0.00000           0.140271            3.81697
    133       0.00000           0.145281            3.95331
    134       0.00000           0.146279            3.98044
    135       0.00000           0.147134            4.00372
    136       0.00000           0.148928            4.05255
    137       0.00000           0.150206            4.08732
    138       0.00000           0.151350            4.11843
    139       0.00000           0.154048            4.19186
    140       0.00000           0.161538            4.39568
    141       0.00000           0.163259            4.44249
    142       0.00000           0.166869            4.54073
    143       0.00000           0.167826            4.56678
    144       0.00000           0.171371            4.66324
    145       0.00000           0.174587            4.75075
    146       0.00000           0.185225            5.04023
    147       0.00000           0.185747            5.05443
    148       0.00000           0.186628            5.07840
    149       0.00000           0.186872            5.08504
    150       0.00000           0.190905            5.19478
    151       0.00000           0.194015            5.27942
    152       0.00000           0.200424            5.45382
    153       0.00000           0.201027            5.47023
    154       0.00000           0.202751            5.51714
    155       0.00000           0.204188            5.55625
    156       0.00000           0.206026            5.60625
    157       0.00000           0.209183            5.69215
    158       0.00000           0.213762            5.81677
    159       0.00000           0.216178            5.88250
    160       0.00000           0.216390            5.88827
    161       0.00000           0.221343            6.02306
    162       0.00000           0.224388            6.10590
    163       0.00000           0.226716            6.16927
    164       0.00000           0.227424            6.18852
    165       0.00000           0.229540            6.24610
    166       0.00000           0.235475            6.40760
    167       0.00000           0.240942            6.55637
    168       0.00000           0.243268            6.61966
    169       0.00000           0.249767            6.79651
    170       0.00000           0.250440            6.81482
    171       0.00000           0.251427            6.84168
    172       0.00000           0.254416            6.92300
    173       0.00000           0.263106            7.15947
    174       0.00000           0.265723            7.23070
    175       0.00000           0.267753            7.28593
    176       0.00000           0.274348            7.46538
    177       0.00000           0.275913            7.50798
    178       0.00000           0.282275            7.68109
    179       0.00000           0.283261            7.70793
    180       0.00000           0.288014            7.83725
    181       0.00000           0.297720            8.10138
    182       0.00000           0.301695            8.20954
    183       0.00000           0.303630            8.26221
    184       0.00000           0.303960            8.27116
    185       0.00000           0.312301            8.49815
    186       0.00000           0.316818            8.62106
    187       0.00000           0.323567            8.80470
    188       0.00000           0.324847            8.83954
    189       0.00000           0.327823            8.92052
    190       0.00000           0.329759            8.97321
    191       0.00000           0.330684            8.99838
    192       0.00000           0.338988            9.22434

  Highest occupied state (VBM) at     -6.03018693 eV
  | Occupation number:      2.00000000

  Lowest unoccupied state (CBM) at    -3.82593484 eV
  | Occupation number:      0.00000000

  Overall HOMO-LUMO gap:      2.20425208 eV.

  Total energy components:
  | Sum of eigenvalues            :        -579.25081436 Ha      -15762.21663159 eV
  | XC energy correction          :        -146.01015629 Ha       -3973.13850383 eV
  | XC potential correction       :         187.57660398 Ha        5104.21909398 eV
  | Free-atom electrostatic energy:        -435.77696187 Ha      -11858.09446556 eV
  | Hartree energy correction     :         -28.06310617 Ha        -763.63597231 eV
  | Entropy correction            :           0.00000000 Ha           0.00000000 eV
  | ---------------------------
  | Total energy                  :       -1001.52443472 Ha      -27252.86647932 eV
  | Total energy, T -> 0          :       -1001.52443472 Ha      -27252.86647932 eV  <-- do not rely on this value for anything but (periodic) metals
  | Electronic free energy        :       -1001.52443472 Ha      -27252.86647932 eV

  Derived energy quantities:
  | Kinetic energy                :        1001.46746453 Ha       27251.31624157 eV
  | Electrostatic energy          :       -1856.98174296 Ha      -50531.04421705 eV
  | Energy correction for multipole
  | error in Hartree potential    :          -0.06296361 Ha          -1.71332702 eV
  | Sum of eigenvalues per atom                           :        -358.23219617 eV
  | Total energy (T->0) per atom                          :        -619.38332908 eV  <-- do not rely on this value for anything but (periodic) metals
  | Electronic free energy per atom                       :        -619.38332908 eV

  Self-consistency convergence accuracy:
  | Change of charge density      :  0.1040E+01
  | Change of sum of eigenvalues  :  0.7737E+03 eV
  | Change of total energy        :  0.2595E+02 eV

  End self-consistency iteration #     1       :  max(cpu_time)    wall_clock(cpu1)
  | Time for this iteration                    :        4.636 s           4.643 s
  | Charge density update                      :        1.005 s           1.007 s
  | Density mixing                             :        0.002 s           0.004 s
  | Hartree multipole update                   :        0.009 s           0.010 s
  | Hartree multipole summation                :        0.709 s           0.711 s
  | Integration                                :        2.767 s           2.767 s
  | Solution of K.-S. eqns.                    :        0.138 s           0.139 s
  | Total energy evaluation                    :        0.002 s           0.002 s

  Partial memory accounting:
  | Current value for overall tracked memory usage on task 0  :           3.386 MB
  | Peak value for overall tracked memory usage on task 0     :          27.765 MB after allocating zora_vector2
  | Largest tracked array allocation on task 0 so far         :           7.496 MB  when allocating hamiltonian_shell
  Note:  These values currently only include a subset of arrays which are explicitly tracked.
  The "true" memory usage will be greater.
------------------------------------------------------------

------------------------------------------------------------
          Begin self-consistency iteration #    2

  Date     :  20210620, Time     :  165132.227
------------------------------------------------------------
  Evaluating new KS density.
  Integration grid: deviation in total charge (<rho> - N_e) =   1.136868E-13
  Pulay mixing of updated and previous charge densities.

  Evaluating partitioned Hartree potential by multipole expansion.
  | Analytical far-field extrapolation by fixed multipoles:
  | Hartree multipole sum: apparent total charge =   0.320458E-03
  Summing up the Hartree potential with load balancing.
  Time summed over all CPUs for potential: real work       21.460 s, elapsed       24.575 s
  | RMS charge density error from multipole expansion :   0.213034E-01

  Integrating Hamiltonian matrix: batch-based integration with load balancing
  Time summed over all CPUs for integration: real work      135.402 s, elapsed      143.233 s
  Time get_set_full_local_matrix_scalapack:     0.018162 s

  Updating Kohn-Sham eigenvalues and eigenvectors using ELSI and the ELPA eigensolver.
  Finished transformation to standard eigenproblem
  | Time :     0.011 s
  Starting ELPA eigensolver
  Finished solving standard eigenproblem
  | Time :     0.070 s
[...]
     22       2.00000          -9.890228         -269.12678
     23       2.00000          -9.889942         -269.11901
     24       2.00000          -9.889942         -269.11901
     25       2.00000          -9.889238         -269.09985
     26       2.00000          -9.889238         -269.09985
     27       2.00000          -0.817125          -22.23511
     28       2.00000          -0.796185          -21.66530
     29       2.00000          -0.787332          -21.42439
     30       2.00000          -0.779150          -21.20174
     31       2.00000          -0.735915          -20.02526
     32       2.00000          -0.735495          -20.01383
     33       2.00000          -0.688221          -18.72744
     34       2.00000          -0.685495          -18.65326
     35       2.00000          -0.682947          -18.58392
     36       2.00000          -0.679336          -18.48566
     37       2.00000          -0.674780          -18.36169
     38       2.00000          -0.670660          -18.24958
     39       2.00000          -0.632091          -17.20007
     40       2.00000          -0.589346          -16.03691
     41       2.00000          -0.568652          -15.47382
     42       2.00000          -0.562693          -15.31166
     43       2.00000          -0.552294          -15.02869
     44       2.00000          -0.547352          -14.89420
     45       2.00000          -0.541407          -14.73243
     46       2.00000          -0.531188          -14.45437
     47       2.00000          -0.513813          -13.98156
     48       2.00000          -0.486303          -13.23297
     49       2.00000          -0.477397          -12.99062
     50       2.00000          -0.473144          -12.87489
     51       2.00000          -0.469608          -12.77869
     52       2.00000          -0.438654          -11.93637
     53       2.00000          -0.415875          -11.31652
     54       2.00000          -0.415462          -11.30529
     55       2.00000          -0.414940          -11.29108
     56       2.00000          -0.408716          -11.12173
     57       2.00000          -0.408333          -11.11132
     58       2.00000          -0.403741          -10.98636
     59       2.00000          -0.396600          -10.79202
     60       2.00000          -0.384550          -10.46414
     61       2.00000          -0.383355          -10.43161
     62       2.00000          -0.377197          -10.26406
     63       2.00000          -0.376172          -10.23615
     64       2.00000          -0.371473          -10.10831
     65       2.00000          -0.363079           -9.87987
     66       2.00000          -0.359122           -9.77219
     67       2.00000          -0.356410           -9.69842
     68       2.00000          -0.338348           -9.20692
     69       2.00000          -0.334346           -9.09802
     70       2.00000          -0.331788           -9.02841
     71       2.00000          -0.331306           -9.01529
     72       2.00000          -0.319871           -8.70413
     73       2.00000          -0.308004           -8.38121
     74       2.00000          -0.305609           -8.31605
     75       2.00000          -0.304618           -8.28906
     76       2.00000          -0.300455           -8.17579
     77       2.00000          -0.293368           -7.98294
     78       2.00000          -0.277087           -7.53993
     79       2.00000          -0.275795           -7.50477
     80       2.00000          -0.268468           -7.30538
     81       2.00000          -0.241145           -6.56189
     82       2.00000          -0.236600           -6.43822
     83       2.00000          -0.233713           -6.35965
     84       2.00000          -0.232171           -6.31769
     85       2.00000          -0.230135           -6.26229
     86       2.00000          -0.225396           -6.13333
     87       2.00000          -0.176428           -4.80084
     88       0.00000          -0.096028           -2.61306
     89       0.00000          -0.052320           -1.42370
     90       0.00000          -0.048823           -1.32854
     91       0.00000          -0.048273           -1.31358
     92       0.00000          -0.044816           -1.21950
     93       0.00000          -0.039292           -1.06918
     94       0.00000          -0.028110           -0.76491
     95       0.00000          -0.009518           -0.25900
     96       0.00000          -0.003461           -0.09418
     97       0.00000           0.001989            0.05413
     98       0.00000           0.005689            0.15479
     99       0.00000           0.009845            0.26790
    100       0.00000           0.016990            0.46232
    101       0.00000           0.019609            0.53359
    102       0.00000           0.022553            0.61371
    103       0.00000           0.023940            0.65145
    104       0.00000           0.027853            0.75792
    105       0.00000           0.034682            0.94375
    106       0.00000           0.038959            1.06014
    107       0.00000           0.045634            1.24176
    108       0.00000           0.049853            1.35657
    109       0.00000           0.054685            1.48806
    110       0.00000           0.057150            1.55512
    111       0.00000           0.058596            1.59448
    112       0.00000           0.067260            1.83024
    113       0.00000           0.072504            1.97292
    114       0.00000           0.083696            2.27750
    115       0.00000           0.097072            2.64147
    116       0.00000           0.099438            2.70585
    117       0.00000           0.103619            2.81962
    118       0.00000           0.111244            3.02711
    119       0.00000           0.112067            3.04951
    120       0.00000           0.115286            3.13709
    121       0.00000           0.127397            3.46665
    122       0.00000           0.137798            3.74968
    123       0.00000           0.139403            3.79335
    124       0.00000           0.141179            3.84169
    125       0.00000           0.144625            3.93544
    126       0.00000           0.145609            3.96223
    127       0.00000           0.147911            4.02486
    128       0.00000           0.153569            4.17882
    129       0.00000           0.154176            4.19535
    130       0.00000           0.156316            4.25356
    131       0.00000           0.163790            4.45695
    132       0.00000           0.165552            4.50489
    133       0.00000           0.170739            4.64605
    134       0.00000           0.170873            4.64970
    135       0.00000           0.176579            4.80497
    136       0.00000           0.178867            4.86723
    137       0.00000           0.181585            4.94119
    138       0.00000           0.183777            5.00082
    139       0.00000           0.184968            5.03324
    140       0.00000           0.190848            5.19323
    141       0.00000           0.201801            5.49129
    142       0.00000           0.203158            5.52821
    143       0.00000           0.203950            5.54975
    144       0.00000           0.204857            5.57444
    145       0.00000           0.207141            5.63660
    146       0.00000           0.213393            5.80671
    147       0.00000           0.214610            5.83982
    148       0.00000           0.215557            5.86561
    149       0.00000           0.217428            5.91651
    150       0.00000           0.222918            6.06591
    151       0.00000           0.228245            6.21087
    152       0.00000           0.228978            6.23081
    153       0.00000           0.229478            6.24443
    154       0.00000           0.233183            6.34524
    155       0.00000           0.233982            6.36699
    156       0.00000           0.237976            6.47565
    157       0.00000           0.242360            6.59496
    158       0.00000           0.242704            6.60431
    159       0.00000           0.243435            6.62420
    160       0.00000           0.249238            6.78210
    161       0.00000           0.255048            6.94021
    162       0.00000           0.255962            6.96507
    163       0.00000           0.260416            7.08628
    164       0.00000           0.264806            7.20574
    165       0.00000           0.266200            7.24367
    166       0.00000           0.271106            7.37717
    167       0.00000           0.271327            7.38318
    168       0.00000           0.275924            7.50827
    169       0.00000           0.278545            7.57960
    170       0.00000           0.280533            7.63370
    171       0.00000           0.283378            7.71112
    172       0.00000           0.291392            7.92918
    173       0.00000           0.294422            8.01162
    174       0.00000           0.298062            8.11067
    175       0.00000           0.298351            8.11854
    176       0.00000           0.303491            8.25840
    177       0.00000           0.305451            8.31174
    178       0.00000           0.318432            8.66498
    179       0.00000           0.321600            8.75117
    180       0.00000           0.323409            8.80040
    181       0.00000           0.325552            8.85872
    182       0.00000           0.333409            9.07253
    183       0.00000           0.335472            9.12866
    184       0.00000           0.337950            9.19610
    185       0.00000           0.349015            9.49719
    186       0.00000           0.351263            9.55835
    187       0.00000           0.355261            9.66715
    188       0.00000           0.358085            9.74399
    189       0.00000           0.360462            9.80867
    190       0.00000           0.365806            9.95408
    191       0.00000           0.368628           10.03089
    192       0.00000           0.372298           10.13075

  Highest occupied state (VBM) at     -4.80083883 eV
  | Occupation number:      2.00000000

  Lowest unoccupied state (CBM) at    -2.61305935 eV
  | Occupation number:      0.00000000

  Overall HOMO-LUMO gap:      2.18777949 eV.

  Total energy components:
  | Sum of eigenvalues            :        -569.64440565 Ha      -15500.81295029 eV
  | XC energy correction          :        -146.90576183 Ha       -3997.50917029 eV
  | XC potential correction       :         188.72149181 Ha        5135.37307712 eV
  | Free-atom electrostatic energy:        -435.77696187 Ha      -11858.09446556 eV
  | Hartree energy correction     :         -37.57041822 Ha       -1022.34309598 eV
  | Entropy correction            :           0.00000000 Ha           0.00000000 eV
  | ---------------------------
  | Total energy                  :       -1001.17605574 Ha      -27243.38660499 eV
  | Total energy, T -> 0          :       -1001.17605574 Ha      -27243.38660499 eV  <-- do not rely on this value for anything but (periodic) metals
  | Electronic free energy        :       -1001.17605574 Ha      -27243.38660499 eV

  Derived energy quantities:
  | Kinetic energy                :         998.86545497 Ha       27180.51195886 eV
  | Electrostatic energy          :       -1853.13574888 Ha      -50426.38939356 eV
  | Energy correction for multipole
  | error in Hartree potential    :          -0.11584409 Ha          -3.15227796 eV
  | Sum of eigenvalues per atom                           :        -352.29120342 eV
  | Total energy (T->0) per atom                          :        -619.16787739 eV  <-- do not rely on this value for anything but (periodic) metals
  | Electronic free energy per atom                       :        -619.16787739 eV
  End evaluation of scaled ZORA corrections.
  | Time for scaled ZORA corrections           :        4.478 s           4.489 s
------------------------------------------------------------

  Energy and forces in a compact form:
  | Total energy uncorrected      :         -0.272433866049907E+05 eV
  | Total energy corrected        :         -0.272433866049907E+05 eV  <-- do not rely on this value for anything but (periodic) metals
  | Electronic free energy        :         -0.272433866049907E+05 eV

  ------------------------------------ 
  Start decomposition of the XC Energy 
  ------------------------------------ 
  X and C from original XC functional choice 
  Hartree-Fock Energy :          0.000000000 Ha              0.000000000 eV
  X Energy            :       -141.094760398 Ha          -3839.383776136 eV
  C Energy            :         -5.811001427 Ha           -158.125394157 eV
  Total XC Energy     :       -146.905761825 Ha          -3997.509170292 eV
  ------------------------------------ 
  LDA X and C from self-consistent density 
  X Energy LDA        :       -127.778086213 Ha          -3477.018634607 eV
  C Energy LDA        :        -11.202241375 Ha           -304.828497318 eV
  ------------------------------------ 
  End decomposition of the XC Energy 
  ------------------------------------ 

------------------------------------------------------------

------------------------------------------------------------------------------
  Final output of selected total energy values:

  The following output summarizes some interesting total energy values
  at the end of a run (AFTER all relaxation, molecular dynamics, etc.).

  | Total energy of the DFT / Hartree-Fock s.c.f. calculation      :         -27243.386604991 eV
  | Final zero-broadening corrected energy (caution - metals only) :         -27243.386604991 eV
  | For reference only, the value of 1 Hartree used in FHI-aims is :             27.211384500 eV

  Before relying on these values, please be sure to understand exactly which
  total energy value is referred to by a given number. Different objects may
  all carry the same name 'total energy'. Definitions:

  Total energy of the DFT / Hartree-Fock s.c.f. calculation:
  | Note that this energy does not include ANY quantities calculated after the
  | s.c.f. cycle, in particular not ANY RPA, MP2, etc. many-body perturbation terms.
  | Scalar relativistic effects have been included in the 'scaled ZORA' approximation.

  Final zero-broadening corrected energy:
  | For metallic systems only, a broadening of the occupation numbers at the Fermi
  | level can be extrapolated back to zero broadening by an electron-gas inspired
  | formula. For all systems that are not real metals, this value can be
  | meaningless and should be avoided.

------------------------------------------------------------------------------
  Methods described in the following list of references were used in this FHI-aims run.
  If you publish the results, please make sure to cite these reference if they apply.
  FHI-aims is an academic code, and for our developers (often, Ph.D. students
  and postdocs), scientific credit in the community is essential.
  Thank you for helping us!

  For any use of FHI-aims, please cite:

    Volker Blum, Ralf Gehrke, Felix Hanke, Paula Havu, Ville Havu,
    Xinguo Ren, Karsten Reuter, and Matthias Scheffler
    'Ab initio molecular simulations with numeric atom-centered orbitals'
    Computer Physics Communications 180, 2175-2196 (2009)
    http://dx.doi.org/10.1016/j.cpc.2009.06.022


  The scalable eigensolver library ELPA was used in your run.
  ELPA is essential especially for large systems on hundreds or thousands of CPUs.
  For ELPA, please cite:

    Andreas Marek, Volker Blum, Rainer Johanni, Ville Havu, Bruno Lang,
    Thomas Auckenthaler, Alexander Heinecke, Hans-Joachim Bungartz, and Hermann Lederer,
    'The ELPA Library - Scalable Parallel Eigenvalue Solutions
    for Electronic Structure Theory and Computational Science'
    The Journal of Physics: Condensed Matter 26, 213201 (2014).
    http://dx.doi.org/10.1088/0953-8984/26/21/213201


  The ELSI infrastructure was used in your run to solve the Kohn-Sham electronic structure.
  Please check out http://elsi-interchange.org to learn more.
  If scalability is important for your project, please acknowledge ELSI by citing:

    V. W-z. Yu, F. Corsetti, A. Garcia, W. P. Huhn, M. Jacquelin, W. Jia,
    B. Lange, L. Lin, J. Lu, W. Mi, A. Seifitokaldani, A. Vazquez-Mayagoitia,
    C. Yang, H. Yang, and V. Blum
    'ELSI: A unified software interface for Kohn-Sham electronic structure solvers'
    Computer Physics Communications 222, 267-285 (2018).
    http://dx.doi.org/10.1016/j.cpc.2017.09.007


  For the real-space grid partitioning and parallelization used in this calculation, please cite:

    Ville Havu, Volker Blum, Paula Havu, and Matthias Scheffler,
    'Efficient O(N) integration for all-electron electronic structure calculation'
    'using numerically tabulated basis functions'
    Journal of Computational Physics 228, 8367-8379 (2009).
    http://dx.doi.org/10.1016/j.jcp.2009.08.008

  Of course, there are many other important community references, e.g., those cited in the
  above references. Our list is limited to references that describe implementations in the
  FHI-aims code. The reason is purely practical (length of this list) - please credit others as well.

------------------------------------------------------------
          Leaving FHI-aims.
          Date     :  20210620, Time     :  165235.109

          Computational steps:
          | Number of self-consistency cycles          :           15
          | Number of SCF (re)initializations          :            1

          Detailed time accounting                     :  max(cpu_time)    wall_clock(cpu1)
          | Total time                                 :       74.135 s          74.713 s
          | Preparation time                           :        0.218 s           0.265 s
          | Boundary condition initalization           :        0.001 s           0.017 s
          | Grid partitioning                          :        0.640 s           0.648 s
          | Preloading free-atom quantities on grid    :        0.013 s           0.016 s
          | Free-atom superposition energy             :        0.056 s           0.056 s
          | Total time for integrations                :       43.380 s          43.390 s
          | Total time for solution of K.-S. equations :        2.039 s           2.064 s
          | Total time for density update              :       15.254 s          15.220 s
          | Total time for mixing                      :        0.103 s           0.107 s
          | Total time for Hartree multipole update    :        0.126 s           0.130 s
          | Total time for Hartree multipole sum       :        6.885 s           6.891 s
          | Total time for total energy evaluation     :        0.009 s           0.029 s
          | Total time for scaled ZORA corrections     :        4.478 s           4.489 s

          Partial memory accounting:
          | Residual value for overall tracked memory usage across tasks :     0.000000 MB (should be 0.000000 MB)
          | Peak values for overall tracked memory usage (after allocating zora_vector2):
          |   Minimum:       25.561 MB (on task 18)
          |   Maximum:       31.750 MB (on task 29)
          |   Average:       29.179 MB
          | Largest tracked array allocation (hamiltonian_shell):
          |   Minimum:        7.496 MB (on task  1)
          |   Maximum:        7.496 MB (on task  1)
          |   Average:        7.496 MB
          Note:  These values currently only include a subset of arrays which are explicitly tracked.
          The "true" memory usage will be greater.

          Have a nice day.
------------------------------------------------------------
