  MPI-parallelism will be employed.
------------------------------------------------------------
          Invoking FHI-aims ...
          Version 180607
          Git rev. (modified): 6724847 Fix JSON memory corruption in scf_solver
          Compiled on 2018/06/27 at 16:00:31 on host coe.psc.edu.

          When using FHI-aims, please cite the following reference:

          Volker Blum, Ralf Gehrke, Felix Hanke, Paula Havu,
          Ville Havu, Xinguo Ren, Karsten Reuter, and Matthias Scheffler,
          'Ab Initio Molecular Simulations with Numeric Atom-Centered Orbitals',
          Computer Physics Communications 180, 2175-2196 (2009)

          For any questions about FHI-aims, please visit the aimsclub website
          with its forums and wiki. Contributions to both the forums and the
          wiki are warmly encouraged - they are for you, and everyone is welcome there.

------------------------------------------------------------



  Date     :  20210620, Time     :  175045.814
  Time zero on CPU 1             :   0.384722000000000E+00  s.
  Internal wall clock time zero  :           393443445.814  s.

  FHI-aims created a unique identifier for this run for later identification
  aims_uuid : 4D8EEC15-A7EF-49ED-AD89-54AB6D4B4FB1

  Using       56 parallel tasks.
  Task        0 on host d001 reporting.
  Task        1 on host d001 reporting.
  Task        2 on host d001 reporting.
  Task        3 on host d001 reporting.
  Task        4 on host d001 reporting.
  Task        5 on host d001 reporting.
  Task        6 on host d001 reporting.
  Task        7 on host d001 reporting.
  Task        8 on host d001 reporting.
  Task        9 on host d001 reporting.
  Task       10 on host d001 reporting.
  Task       11 on host d001 reporting.
  Task       12 on host d001 reporting.
  Task       13 on host d001 reporting.
  Task       14 on host d001 reporting.
  Task       15 on host d001 reporting.
  Task       16 on host d001 reporting.
  Task       17 on host d001 reporting.
  Task       18 on host d001 reporting.
  Task       19 on host d001 reporting.
  Task       20 on host d001 reporting.
  Task       21 on host d001 reporting.
  Task       22 on host d001 reporting.
  Task       23 on host d001 reporting.
  Task       24 on host d001 reporting.
  Task       25 on host d001 reporting.
  Task       26 on host d001 reporting.
  Task       27 on host d001 reporting.
  Task       28 on host d001 reporting.
  Task       29 on host d001 reporting.
  Task       30 on host d001 reporting.
  Task       31 on host d001 reporting.
  Task       32 on host d001 reporting.
  Task       33 on host d001 reporting.
  Task       34 on host d001 reporting.
  Task       35 on host d001 reporting.
  Task       36 on host d001 reporting.
  Task       37 on host d001 reporting.
  Task       38 on host d001 reporting.
  Task       39 on host d001 reporting.
  Task       40 on host d001 reporting.
  Task       41 on host d001 reporting.
  Task       42 on host d001 reporting.
  Task       43 on host d001 reporting.
  Task       44 on host d001 reporting.
  Task       45 on host d001 reporting.
  Task       46 on host d001 reporting.
  Task       47 on host d001 reporting.
  Task       48 on host d001 reporting.
  Task       49 on host d001 reporting.
  Task       50 on host d001 reporting.
  Task       51 on host d001 reporting.
  Task       52 on host d001 reporting.
  Task       53 on host d001 reporting.
  Task       54 on host d001 reporting.
  Task       55 on host d001 reporting.

  Performing system and environment tests:
  *** Environment variable OMP_NUM_THREADS is not set
  *** For performance reasons you might want to set it to 1
  | Stacksize not measured: no C compiler
  | Checking for scalapack...
  | Testing pdtran()...
  | All pdtran() tests passed.

  Obtaining array dimensions for all initial allocations:
  
  -----------------------------------------------------------------------
  Parsing control.in (first pass over file, find array dimensions only).
  The contents of control.in will be repeated verbatim below
  unless switched off by setting 'verbatim_writeout .false.' .
  in the first line of control.in .
  -----------------------------------------------------------------------
  
  #===============================================================================
  # FHI-aims file: ./Runs/es/control.in
  # Created using the Atomic Simulation Environment (ASE)
  # Mon Jan 13 16:04:38 2020
  #===============================================================================
  xc                                 pbe
  relativistic                       zora scalar 1e-12
  occupation_type                    gaussian 0.0001
  load_balancing                     .true.
  KS_method                          scalapack_fast
  mixer                              pulay
  n_max_pulay                        5
  charge_mix_param                   0.4
  sc_accuracy_etot                   1e-6
  sc_accuracy_eev                    1e-4
  sc_accuracy_rho                    1e-6
  sc_iter_limit                      100
  prodbas_threshold                  1e-4
  basis_threshold                    1e-5
  override_illconditioning           .true.
  use_logsbt                         .true.
  spin                               none
  charge                             0
  #===============================================================================
  
  ################################################################################
  #
  #  FHI-aims code project
  # Volker Blum, Fritz Haber Institute Berlin, 2009
  #
  #  Suggested "tight" defaults for H atom (to be pasted into control.in file)
  #
  ################################################################################
    species        H
  #     global species definitions
      nucleus             1
      mass                1.00794
  #
      l_hartree           6
  #
      cut_pot             4.0  2.0  1.0
      basis_dep_cutoff    1e-4
  #
      radial_base         24 7.0
      radial_multiplier   2
      angular_grids       specified
        division   0.1930   50
        division   0.3175  110
        division   0.4293  194
        division   0.5066  302
        division   0.5626  434
  #      division   0.5922  590
  #      division   0.6227  974
  #      division   0.6868 1202
  #      outer_grid  770
        outer_grid  434
  ################################################################################
  #
  #  Definition of "minimal" basis
  #
  ################################################################################
  #     valence basis states
      valence      1  s   1.
  #     ion occupancy
      ion_occ      1  s   0.5
  ################################################################################
  #
  #  Suggested additional basis functions. For production calculations,
  #  uncomment them one after another (the most important basis functions are
  #  listed first).
  #
  #  Basis constructed for dimers: 0.5 A, 0.7 A, 1.0 A, 1.5 A, 2.5 A
  #
  ################################################################################
  #  "First tier" - improvements: -1014.90 meV to -62.69 meV
       hydro 2 s 2.1
       hydro 2 p 3.5
  #  "Second tier" - improvements: -12.89 meV to -1.83 meV
       hydro 1 s 0.85
       hydro 2 p 3.7
       hydro 2 s 1.2
       hydro 3 d 7
  #  "Third tier" - improvements: -0.25 meV to -0.12 meV
  #     hydro 4 f 11.2
  #     hydro 3 p 4.8
  #     hydro 4 d 9
  #     hydro 3 s 3.2
  ################################################################################
  #
  # For methods that use the localized form of the "resolution of identity" for
  # the two-electron Coulomb operator (RI_method LVL), particularly Hartree-Fock and
  # hybrid density functional calculations, the highest accuracy can be obtained by
  # uncommenting the line beginning with "for_aux"  below, thus adding an extra g radial
  # function to the construction of the product basis set for the expansion.
  # See Ref. New J. Phys. 17, 093020 (2015) for more information, particularly Figs. 1 and 6.
  #
  ################################################################################
  #
  # for_aux hydro 5 g 6.0
  ################################################################################
  #
  #  FHI-aims code project
  # Volker Blum, Fritz Haber Institute Berlin, 2009
  #
  #  Suggested "tight" defaults for C atom (to be pasted into control.in file)
  #
  ################################################################################
    species        C
  #     global species definitions
      nucleus             6
      mass                12.0107
  #
      l_hartree           6
  #
      cut_pot             4.0  2.0  1.0
      basis_dep_cutoff    1e-4
  #
      radial_base         34 7.0
      radial_multiplier   2
      angular_grids specified
        division   0.2187   50
        division   0.4416  110
        division   0.6335  194
        division   0.7727  302
        division   0.8772  434
  #      division   0.9334  590
  #      division   0.9924  770
  #      division   1.0230  974
  #      division   1.5020 1202
  #     outer_grid  974
        outer_grid  434
  ################################################################################
  #
  #  Definition of "minimal" basis
  #
  ################################################################################
  #     valence basis states
      valence      2  s   2.
      valence      2  p   2.
  #     ion occupancy
      ion_occ      2  s   1.
      ion_occ      2  p   1.
  ################################################################################
  #
  #  Suggested additional basis functions. For production calculations,
  #  uncomment them one after another (the most important basis functions are
  #  listed first).
  #
  #  Constructed for dimers: 1.0 A, 1.25 A, 1.5 A, 2.0 A, 3.0 A
  #
  ################################################################################
  #  "First tier" - improvements: -1214.57 meV to -155.61 meV
       hydro 2 p 1.7
       hydro 3 d 6
       hydro 2 s 4.9
  #  "Second tier" - improvements: -67.75 meV to -5.23 meV
       hydro 4 f 9.8
       hydro 3 p 5.2
       hydro 3 s 4.3
       hydro 5 g 14.4
       hydro 3 d 6.2
  #  "Third tier" - improvements: -2.43 meV to -0.60 meV
  #     hydro 2 p 5.6
  #     hydro 2 s 1.4
  #     hydro 3 d 4.9
  #     hydro 4 f 11.2
  #  "Fourth tier" - improvements: -0.39 meV to -0.18 meV
  #     hydro 2 p 2.1
  #     hydro 5 g 16.4
  #     hydro 4 d 13.2
  #     hydro 3 s 13.6
  #     hydro 4 f 17.6
  #  Further basis functions - improvements: -0.08 meV and below
  #     hydro 3 s 2
  #     hydro 3 p 6
  #     hydro 4 d 20
  ################################################################################
  #
  # For methods that use the localized form of the "resolution of identity" for
  # the two-electron Coulomb operator (RI_method LVL), particularly Hartree-Fock and
  # hybrid density functional calculations, the highest accuracy can be obtained by
  # uncommenting the line beginning with "for_aux"  below, thus adding an extra g radial
  # function to the construction of the product basis set for the expansion.
  # See Ref. New J. Phys. 17, 093020 (2015) for more information, particularly Figs. 1 and 6.
  #
  ################################################################################
  #
  # for_aux hydro 5 g 6.0
  
  -----------------------------------------------------------------------
  Completed first pass over input file control.in .
  -----------------------------------------------------------------------
  
  
  -----------------------------------------------------------------------
  Parsing geometry.in (first pass over file, find array dimensions only).
  The contents of geometry.in will be repeated verbatim below
  unless switched off by setting 'verbatim_writeout .false.' .
  in the first line of geometry.in .
  -----------------------------------------------------------------------
  
  #=======================================================
  # FHI-aims file: geometry.in
  # Created using the Atomic Simulation Environment (ASE)
  # Sun Jun 20 15:47:02 2021
  #=======================================================
  atom 7.8283769999999997 42.4284770000000009 52.5731749999999991 H
  atom 8.0968730000000004 42.3743509999999972 53.6278930000000003 C
  atom 7.1676370000000000 41.9090490000000031 54.5490270000000024 C
  atom 9.3737639999999995 42.7583500000000001 54.0280240000000020 C
  atom 6.1831519999999998 41.5993739999999974 54.2005800000000022 H
  atom 7.4952600000000000 41.8456199999999967 55.8640389999999982 C
  atom 9.6690769999999997 42.6775329999999968 55.3597079999999977 C
  atom 10.3618030000000001 43.2423780000000022 53.0568740000000005 C
  atom 6.7797229999999997 41.4686919999999972 56.5942769999999982 H
  atom 8.7501809999999995 42.2359089999999995 56.2662529999999990 C
  atom 10.6666810000000005 42.9590340000000026 55.7006519999999981 H
  atom 10.9336909999999996 42.3423230000000004 52.1336560000000020 C
  atom 10.7269059999999996 44.6001830000000012 53.0297819999999973 C
  atom 9.0323119999999992 42.1683779999999970 57.3168039999999976 H
  atom 10.6157609999999991 40.9738339999999965 52.1440759999999983 C
  atom 11.8900670000000002 42.8209590000000020 51.1708429999999979 C
  atom 10.1834520000000008 45.5322209999999998 53.9217390000000023 C
  atom 11.6832820000000002 45.0788179999999983 52.0669680000000028 C
  atom 9.9215800000000005 40.6163150000000002 52.9001560000000026 H
  atom 11.1572770000000006 40.0711069999999978 51.2521190000000004 C
  atom 12.4335210000000007 41.8889210000000034 50.2788850000000025 C
  atom 12.2551690000000004 44.1787640000000010 51.1437499999999972 C
  atom 9.4602889999999995 45.1825740000000025 54.6544779999999975 H
  atom 10.5207680000000003 46.8721999999999994 53.9196549999999988 C
  atom 12.0012120000000007 46.4473079999999996 52.0565479999999994 C
  atom 10.8186680000000006 38.6589039999999997 51.2812950000000001 C
  atom 12.0962049999999994 40.5489409999999992 50.2809689999999989 C
  atom 13.1566829999999992 42.2385680000000008 49.5461460000000002 H
  atom 13.2432090000000002 44.6627909999999986 50.1726010000000002 C
  atom 9.9915299999999991 47.8042609999999968 54.8741330000000005 C
  atom 11.4596959999999992 47.3500349999999983 52.9485049999999973 C
  atom 12.6953920000000000 46.8048259999999985 51.3004680000000022 H
  atom 9.8810319999999994 38.1864339999999984 52.3233010000000007 C
  atom 11.3601840000000003 37.8165010000000024 50.3726660000000024 C
  atom 12.6254430000000006 39.6168809999999993 49.3264909999999972 C
  atom 12.9478960000000001 44.7436080000000018 48.8409169999999975 C
  atom 14.5200999999999993 45.0467900000000014 50.5727309999999974 C
  atom 9.0493699999999997 47.2888549999999981 55.9161390000000011 C
  atom 10.3798949999999994 49.1085169999999991 54.8762169999999969 C
  atom 11.7983049999999992 48.7622369999999989 52.9193289999999976 C
  atom 8.5317659999999993 38.5572370000000006 52.2982930000000010 C
  atom 10.3036469999999998 37.3362899999999982 53.3402999999999992 C
  atom 11.1385380000000005 36.3532020000000031 50.4393540000000016 C
  atom 12.2370769999999993 38.3126249999999970 49.3244070000000008 C
  atom 13.5676030000000001 40.1322860000000006 48.2844849999999965 C
  atom 11.9502919999999992 44.4621080000000006 48.4999719999999996 H
  atom 13.8667920000000002 45.1852319999999992 47.9343709999999987 C
  atom 14.7885960000000001 44.9926639999999978 51.6274500000000032 H
  atom 15.4493360000000006 45.5120920000000027 49.6515970000000024 C
  atom 7.7621399999999996 46.9275599999999997 55.5868650000000031 C
  atom 9.4403210000000009 47.2244790000000023 57.2374030000000005 C
  atom 9.9973449999999993 50.0124989999999983 55.9724069999999969 C
  atom 11.2567889999999995 49.6046410000000009 53.8279580000000024 C
  atom 12.7359410000000004 49.2347079999999977 51.8773229999999970 C
  atom 7.6581039999999998 38.1086910000000003 53.2423509999999993 C
  atom 8.1758389999999999 39.2149369999999990 51.5051180000000031 H
  atom 9.4021980000000003 36.8877430000000004 54.2843570000000000 C
  atom 11.3441580000000002 37.0180640000000025 53.3888570000000016 H
  atom 9.8790940000000003 35.7965769999999992 50.3393220000000028 C
  atom 12.1957210000000007 35.5033280000000033 50.6644270000000034 C
  atom 12.6196280000000005 37.4086420000000004 48.2282170000000008 C
  atom 13.1766520000000007 40.1966630000000009 46.9632209999999972 C
  atom 14.8548329999999993 40.4935820000000035 48.6137590000000017 C
  atom 13.5846610000000005 45.2527630000000016 46.8838200000000001 H
  atom 15.1217120000000005 45.5755210000000019 48.3365859999999969 C
  atom 16.4338209999999982 45.8217679999999987 50.0000440000000026 H
  atom 6.8632759999999999 46.5498509999999968 56.5538469999999975 C
  atom 7.4417540000000004 46.9587360000000018 54.5446499999999972 H
  atom 8.5291789999999992 46.8493690000000029 58.1981329999999986 C
  atom 10.4595719999999996 47.4854150000000033 57.5206200000000010 H
  atom 8.6803889999999999 50.3023999999999987 56.2579169999999991 C
  atom 10.9711680000000005 50.5742740000000026 56.7414079999999998 C
  atom 11.4784349999999993 51.0679390000000026 53.7612700000000032 C
  atom 12.3133260000000000 50.0848519999999979 50.8603250000000031 C
  atom 14.0852059999999994 48.8639039999999980 51.9023309999999967 C
  atom 6.6178509999999999 38.4291989999999970 53.1896249999999995 H
  atom 8.0761959999999995 37.2673150000000035 54.2260050000000007 C
  atom 9.7465580000000003 36.2354830000000021 55.0879520000000014 H
  atom 9.6988050000000001 34.4245159999999970 50.4060100000000020 C
  atom 9.0164489999999997 36.4410269999999983 50.1826039999999978 H
  atom 12.0025080000000006 34.1416109999999975 50.7582080000000033 C
  atom 13.1982680000000006 35.9151769999999999 50.7867590000000035 H
  atom 11.6458049999999993 36.8468680000000006 47.4592159999999978 C
  atom 13.9365839999999999 37.1187419999999975 47.9427069999999986 C
  atom 12.1574000000000009 39.9357260000000025 46.6800039999999967 H
  atom 14.0877940000000006 40.5717730000000003 46.0024919999999966 C
  atom 15.1752190000000002 40.4624049999999968 49.6559740000000005 H
  atom 15.7536970000000007 40.8712909999999994 47.6467770000000002 C
  atom 15.8372489999999999 45.9524499999999989 47.6063479999999970 H
  atom 5.8482250000000002 46.2768739999999994 56.2656279999999995 H
  atom 7.2432410000000003 46.5465019999999967 57.8646910000000005 C
  atom 8.8395489999999999 46.8104140000000015 59.2426400000000015 H
  atom 7.8855310000000003 49.8565129999999996 55.6627229999999997 H
  atom 8.3663360000000004 51.1537829999999971 57.3061750000000032 C
  atom 10.6681000000000008 51.4266050000000021 57.7834140000000005 C
  atom 12.0141989999999996 50.3410900000000012 56.5284219999999991 H
  atom 10.4212509999999998 51.9178130000000024 53.5361970000000014 C
  atom 12.7378789999999995 51.6245649999999969 53.8613029999999995 C
  atom 11.2728140000000003 50.4030770000000032 50.8117670000000032 H
  atom 13.2147749999999995 50.5333979999999983 49.9162669999999977 C
  atom 14.4411330000000007 48.2062039999999996 52.6955060000000017 H
  atom 14.9588690000000000 49.3124510000000029 50.9582729999999984 C
  atom 7.3776529999999996 36.8920540000000017 54.9752069999999975 H
  atom 8.6970010000000002 34.0072720000000004 50.3070189999999968 H
  atom 10.7689120000000003 33.6158289999999980 50.6289990000000003 C
  atom 12.8573339999999998 33.4920430000000025 50.9459779999999967 H
  atom 10.6027729999999991 37.0800509999999974 47.6722019999999986 H
  atom 11.9488730000000007 35.9945370000000011 46.4172099999999972 C
  atom 14.2506369999999993 36.2673580000000015 46.8944490000000016 C
  atom 14.7314419999999995 37.5646289999999965 48.5379009999999980 H
  atom 13.7774239999999999 40.6107280000000017 44.9579840000000033 H
  atom 15.3737320000000004 40.8746390000000019 46.3359340000000017 C
  atom 16.7687479999999987 41.1442669999999993 47.9349959999999982 H
  atom 6.5295129999999997 46.2782559999999989 58.6432780000000022 H
  atom 7.3230459999999997 51.3939779999999971 57.5110340000000022 H
  atom 9.3530829999999998 51.6875819999999990 58.0772600000000025 C
  atom 11.4614069999999995 51.8736689999999996 58.3817340000000016 H
  atom 9.4187049999999992 51.5059639999999987 53.4138650000000013 H
  atom 10.6144649999999992 53.2795300000000012 53.4424160000000015 C
  atom 13.6005230000000008 50.9801149999999978 54.0180199999999999 H
  atom 12.9181679999999997 52.9966259999999991 53.7946140000000028 C
  atom 12.8704140000000002 51.1856590000000011 49.1126720000000034 H
  atom 14.5407770000000003 50.1538269999999997 49.9746189999999970 C
  atom 15.9991219999999998 48.9919420000000017 51.0109989999999982 H
  atom 10.6247129999999999 32.5373900000000020 50.7127770000000027 H
  atom 11.1555660000000003 35.5474719999999991 45.8188900000000032 H
  atom 13.2638900000000000 35.7335599999999971 46.1233640000000022 C
  atom 15.2939270000000000 36.0271630000000016 46.6895900000000026 H
  atom 16.0874589999999991 41.1428859999999972 45.5573460000000026 H
  atom 9.1066219999999998 52.3702919999999992 58.8900250000000014 H
  atom 9.7596390000000000 53.9290980000000033 53.2546469999999985 H
  atom 11.8480609999999995 53.8053129999999982 53.5716249999999974 C
  atom 13.9199719999999996 53.4138689999999983 53.8936050000000009 H
  atom 15.2393190000000001 50.5290880000000016 49.2254170000000002 H
  atom 13.5103510000000000 35.0508489999999995 45.3105990000000034 H
  atom 11.9922599999999999 54.8837520000000012 53.4878479999999996 H
  
  -----------------------------------------------------------------------
  Completed first pass over input file geometry.in .
  -----------------------------------------------------------------------
  

  Basic array size parameters:
  | Number of species                 :        2
  | Number of atoms                   :      136
  | Max. basis fn. angular momentum   :        4
  | Max. atomic/ionic basis occupied n:        2
  | Max. number of basis fn. types    :        2
  | Max. radial fns per species/type  :        8
  | Max. logarithmic grid size        :     1277
  | Max. radial integration grid size :       69
  | Max. angular integration grid size:      434
  | Max. angular grid division number :        8
  | Radial grid for Hartree potential :     1277
  | Number of spin channels           :        1

------------------------------------------------------------
          Reading file control.in.
------------------------------------------------------------
  XC: Using PBE gradient-corrected functionals.
  Scalar relativistic treatment of kinetic energy: ZORA.
  Threshold value for ZORA:   0.100000E-11
  Occupation type: Gaussian broadening, width =   0.100000E-03 eV.
  Since 'load_balancing .true.' is present in control.in, automatically turning on 'use_local_index .true.'.
  Using load balancing for integrations.
  Kohn-Sham electronic structure solved by the ELSI library.
  Using pulay charge density mixing.
  Pulay mixing - number of memorized iterations:    5
  Charge density mixing - mixing parameter:     0.4000
  Convergence accuracy of total energy:  0.1000E-05
  Convergence accuracy of sum of eigenvalues:  0.1000E-03
  Convergence accuracy of self-consistent charge density:  0.1000E-05
  Maximum number of s.-c. iterations  :   100
  * Ignoring prodbas_threshold
  Threshold for basis singularities:  0.1000E-04
  override_illconditioning: Explicitly overriding any built-in checks for an ill-conditioned overlap matrix.
  *** WARNING: If you use this flag, you should really know what you are doing.
  *** DO NOT keep this flag set by default in all your control.in files.
  Using 1D integrations for auxiliary 2-center integrals.
  Spin treatment: No spin polarisation.
  Charge =   0.000000E+00: Neutral system requested explicitly.
 
  Reading configuration options for species H                   .
  | Found nuclear charge :   1.0000
  | Found atomic mass :    1.00794000000000      amu
  | Found l_max for Hartree potential  :   6
  | Found cutoff potl. onset [A], width [A], scale factor :    4.00000    2.00000    1.00000
  | Threshold for basis-dependent cutoff potential is   0.100000E-03
  | Found data for basic radial integration grid :    24 points, outermost radius =    7.000 A
  | Found multiplier for basic radial grid :   2
  | Found angular grid specification: user-specified.
  | Specified grid contains     6 separate shells.
  | Check grid settings after all constraints further below.
  | Found free-atom valence shell :  1 s   1.000
  | No ionic wave fns used. Skipping ion_occ.
  | Found hydrogenic basis function :  2 s   2.100
  | Found hydrogenic basis function :  2 p   3.500
  | Found hydrogenic basis function :  1 s   0.850
  | Found hydrogenic basis function :  2 p   3.700
  | Found hydrogenic basis function :  2 s   1.200
  | Found hydrogenic basis function :  3 d   7.000
  Species H                   : Missing cutoff potential type.
  Defaulting to exp(1/x)/(1-x)^2 type cutoff potential.
  Species H : No 'logarithmic' tag. Using default grid for free atom:
  | Default logarithmic grid data [bohr] : 0.1000E-03 0.1000E+03 0.1012E+01
  Species H : On-site basis accuracy parameter (for Gram-Schmidt orthonormalisation) not specified.
  Using default value basis_acc =  0.1000000E-03.
  Species H                   : Using default innermost maximum threshold i_radial=  2 for radial functions.
  Species H                   : Default cutoff onset for free atom density etc. : 0.40000000E+01 AA.
  Species H                   : Basic radial grid will be enhanced according to radial_multiplier =   2, to contain    49 grid points.
 
  Reading configuration options for species C                   .
  | Found nuclear charge :   6.0000
  | Found atomic mass :    12.0107000000000      amu
  | Found l_max for Hartree potential  :   6
  | Found cutoff potl. onset [A], width [A], scale factor :    4.00000    2.00000    1.00000
  | Threshold for basis-dependent cutoff potential is   0.100000E-03
  | Found data for basic radial integration grid :    34 points, outermost radius =    7.000 A
  | Found multiplier for basic radial grid :   2
  | Found angular grid specification: user-specified.
  | Specified grid contains     6 separate shells.
  | Check grid settings after all constraints further below.
  | Found free-atom valence shell :  2 s   2.000
  | Found free-atom valence shell :  2 p   2.000
  | No ionic wave fns used. Skipping ion_occ.
  | No ionic wave fns used. Skipping ion_occ.
  | Found hydrogenic basis function :  2 p   1.700
  | Found hydrogenic basis function :  3 d   6.000
  | Found hydrogenic basis function :  2 s   4.900
  | Found hydrogenic basis function :  4 f   9.800
  | Found hydrogenic basis function :  3 p   5.200
  | Found hydrogenic basis function :  3 s   4.300
  | Found hydrogenic basis function :  5 g  14.400
  | Found hydrogenic basis function :  3 d   6.200
  Species C                   : Missing cutoff potential type.
  Defaulting to exp(1/x)/(1-x)^2 type cutoff potential.
  Species C : No 'logarithmic' tag. Using default grid for free atom:
  | Default logarithmic grid data [bohr] : 0.1000E-03 0.1000E+03 0.1012E+01
  Species C : On-site basis accuracy parameter (for Gram-Schmidt orthonormalisation) not specified.
  Using default value basis_acc =  0.1000000E-03.
  Species C                   : Using default innermost maximum threshold i_radial=  2 for radial functions.
  Species C                   : Default cutoff onset for free atom density etc. : 0.40000000E+01 AA.
  Species C                   : Basic radial grid will be enhanced according to radial_multiplier =   2, to contain    69 grid points.
 
  Finished reading input file 'control.in'. Consistency checks are next.
 
  MPI_IN_PLACE appears to work with this MPI implementation.
  | Keeping use_mpi_in_place .true. (see manual).
  Target number of points in a grid batch is not set. Defaulting to  100
  Method for grid partitioning is not set. Defaulting to parallel hash+maxmin partitioning.
  Batch size limit is not set. Defaulting to    200
  By default, will store active basis functions for each batch.
  If in need of memory, prune_basis_once .false. can be used to disable this option.
  communication_type for Hartree potential was not specified.
  Defaulting to calc_hartree .
  Pulay mixer: Number of initial linear mixing iterations not set.
  Defaulting to    0 iterations.
  Work space size for distributed Hartree potential not set.
  Defaulting to   0.200000E+03 MB.
  Algorithm-dependent basis array size parameters:
  | n_max_pulay                         :        5
  Presetting      1001 iterations before the initial mixing cycle
  is restarted anyway using the sc_init_iter criterion / keyword.
  Presetting a factor      1.000 between actual scf density residual
  and density convergence criterion sc_accuracy_rho below which sc_init_iter
  takes no effect.
  Calculation of forces was not defined in control.in. No forces will be calculated.
  Geometry relaxation not requested: no relaxation will be performed.
  No accuracy limit for integral partition fn. given. Defaulting to  0.1000E-14.
  No threshold value for u(r) in integrations given. Defaulting to  0.1000E-05.
  No accuracy for occupation numbers given. Defaulting to  0.1000E-12.
  No threshold value for occupation numbers given. Defaulting to  0.0000E+00.
  No accuracy for fermi level given. Defaulting to  0.1000E-19.
  Maximum # of iterations to find E_F not set. Defaulting to  200.
  Will not use alltoall communication since running on < 1024 CPUs.
  partition_type (choice of integration weights) for integrals was not specified.
  | Using a version of the partition function of Stratmann and coworkers ('stratmann_sparse').
  | At each grid point, the set of atoms used to build the partition table is smoothly restricted to
  | only those atoms whose free-atom density would be non-zero at that grid point.
  Partitioning for Hartree potential was not defined. Using partition_type for integrals.
  | Adjusted default value of keyword multip_moments_threshold to:       0.10000000E-11
  | This value may affect high angular momentum components of the Hartree potential in periodic systems.
  No q(lm)/r^(l+1) cutoff set for long-range Hartree potential.
  | Using default value of  0.100000E-09 .
  | Verify using the multipole_threshold keyword.
  Defaulting to new monopole extrapolation.
  Density update method: automatic selection selected.
 * Warning: use_local_index and/or load_balancing needs packed_matrix_format = index
 * Changing the default setting to packed_matrix_format = index
------------------------------------------------------------


------------------------------------------------------------
          Reading geometry description geometry.in.
------------------------------------------------------------
  Input structure read successfully.
  The structure contains      136 atoms,  and a total of        546.000 electrons.

  Input geometry:
  | No unit cell requested.
  | Atomic structure:
  |       Atom                x [A]            y [A]            z [A]
  |    1: Species H             7.82837700       42.42847700       52.57317500
  |    2: Species C             8.09687300       42.37435100       53.62789300
  |    3: Species C             7.16763700       41.90904900       54.54902700
  |    4: Species C             9.37376400       42.75835000       54.02802400
  |    5: Species H             6.18315200       41.59937400       54.20058000
  |    6: Species C             7.49526000       41.84562000       55.86403900
  |    7: Species C             9.66907700       42.67753300       55.35970800
  |    8: Species C            10.36180300       43.24237800       53.05687400
  |    9: Species H             6.77972300       41.46869200       56.59427700
  |   10: Species C             8.75018100       42.23590900       56.26625300
  |   11: Species H            10.66668100       42.95903400       55.70065200
  |   12: Species C            10.93369100       42.34232300       52.13365600
  |   13: Species C            10.72690600       44.60018300       53.02978200
  |   14: Species H             9.03231200       42.16837800       57.31680400
  |   15: Species C            10.61576100       40.97383400       52.14407600
  |   16: Species C            11.89006700       42.82095900       51.17084300
  |   17: Species C            10.18345200       45.53222100       53.92173900
  |   18: Species C            11.68328200       45.07881800       52.06696800
  |   19: Species H             9.92158000       40.61631500       52.90015600
  |   20: Species C            11.15727700       40.07110700       51.25211900
  |   21: Species C            12.43352100       41.88892100       50.27888500
  |   22: Species C            12.25516900       44.17876400       51.14375000
  |   23: Species H             9.46028900       45.18257400       54.65447800
  |   24: Species C            10.52076800       46.87220000       53.91965500
  |   25: Species C            12.00121200       46.44730800       52.05654800
  |   26: Species C            10.81866800       38.65890400       51.28129500
  |   27: Species C            12.09620500       40.54894100       50.28096900
  |   28: Species H            13.15668300       42.23856800       49.54614600
  |   29: Species C            13.24320900       44.66279100       50.17260100
  |   30: Species C             9.99153000       47.80426100       54.87413300
  |   31: Species C            11.45969600       47.35003500       52.94850500
  |   32: Species H            12.69539200       46.80482600       51.30046800
  |   33: Species C             9.88103200       38.18643400       52.32330100
  |   34: Species C            11.36018400       37.81650100       50.37266600
  |   35: Species C            12.62544300       39.61688100       49.32649100
  |   36: Species C            12.94789600       44.74360800       48.84091700
  |   37: Species C            14.52010000       45.04679000       50.57273100
  |   38: Species C             9.04937000       47.28885500       55.91613900
  |   39: Species C            10.37989500       49.10851700       54.87621700
  |   40: Species C            11.79830500       48.76223700       52.91932900
  |   41: Species C             8.53176600       38.55723700       52.29829300
  |   42: Species C            10.30364700       37.33629000       53.34030000
  |   43: Species C            11.13853800       36.35320200       50.43935400
  |   44: Species C            12.23707700       38.31262500       49.32440700
  |   45: Species C            13.56760300       40.13228600       48.28448500
  |   46: Species H            11.95029200       44.46210800       48.49997200
  |   47: Species C            13.86679200       45.18523200       47.93437100
  |   48: Species H            14.78859600       44.99266400       51.62745000
  |   49: Species C            15.44933600       45.51209200       49.65159700
  |   50: Species C             7.76214000       46.92756000       55.58686500
  |   51: Species C             9.44032100       47.22447900       57.23740300
  |   52: Species C             9.99734500       50.01249900       55.97240700
  |   53: Species C            11.25678900       49.60464100       53.82795800
  |   54: Species C            12.73594100       49.23470800       51.87732300
  |   55: Species C             7.65810400       38.10869100       53.24235100
  |   56: Species H             8.17583900       39.21493700       51.50511800
  |   57: Species C             9.40219800       36.88774300       54.28435700
  |   58: Species H            11.34415800       37.01806400       53.38885700
  |   59: Species C             9.87909400       35.79657700       50.33932200
  |   60: Species C            12.19572100       35.50332800       50.66442700
  |   61: Species C            12.61962800       37.40864200       48.22821700
  |   62: Species C            13.17665200       40.19666300       46.96322100
  |   63: Species C            14.85483300       40.49358200       48.61375900
  |   64: Species H            13.58466100       45.25276300       46.88382000
  |   65: Species C            15.12171200       45.57552100       48.33658600
  |   66: Species H            16.43382100       45.82176800       50.00004400
  |   67: Species C             6.86327600       46.54985100       56.55384700
  |   68: Species H             7.44175400       46.95873600       54.54465000
  |   69: Species C             8.52917900       46.84936900       58.19813300
  |   70: Species H            10.45957200       47.48541500       57.52062000
  |   71: Species C             8.68038900       50.30240000       56.25791700
  |   72: Species C            10.97116800       50.57427400       56.74140800
  |   73: Species C            11.47843500       51.06793900       53.76127000
  |   74: Species C            12.31332600       50.08485200       50.86032500
  |   75: Species C            14.08520600       48.86390400       51.90233100
  |   76: Species H             6.61785100       38.42919900       53.18962500
  |   77: Species C             8.07619600       37.26731500       54.22600500
  |   78: Species H             9.74655800       36.23548300       55.08795200
  |   79: Species C             9.69880500       34.42451600       50.40601000
  |   80: Species H             9.01644900       36.44102700       50.18260400
  |   81: Species C            12.00250800       34.14161100       50.75820800
  |   82: Species H            13.19826800       35.91517700       50.78675900
  |   83: Species C            11.64580500       36.84686800       47.45921600
  |   84: Species C            13.93658400       37.11874200       47.94270700
  |   85: Species H            12.15740000       39.93572600       46.68000400
  |   86: Species C            14.08779400       40.57177300       46.00249200
  |   87: Species H            15.17521900       40.46240500       49.65597400
  |   88: Species C            15.75369700       40.87129100       47.64677700
  |   89: Species H            15.83724900       45.95245000       47.60634800
  |   90: Species H             5.84822500       46.27687400       56.26562800
  |   91: Species C             7.24324100       46.54650200       57.86469100
  |   92: Species H             8.83954900       46.81041400       59.24264000
  |   93: Species H             7.88553100       49.85651300       55.66272300
  |   94: Species C             8.36633600       51.15378300       57.30617500
  |   95: Species C            10.66810000       51.42660500       57.78341400
  |   96: Species H            12.01419900       50.34109000       56.52842200
  |   97: Species C            10.42125100       51.91781300       53.53619700
  |   98: Species C            12.73787900       51.62456500       53.86130300
  |   99: Species H            11.27281400       50.40307700       50.81176700
  |  100: Species C            13.21477500       50.53339800       49.91626700
  |  101: Species H            14.44113300       48.20620400       52.69550600
  |  102: Species C            14.95886900       49.31245100       50.95827300
  |  103: Species H             7.37765300       36.89205400       54.97520700
  |  104: Species H             8.69700100       34.00727200       50.30701900
  |  105: Species C            10.76891200       33.61582900       50.62899900
  |  106: Species H            12.85733400       33.49204300       50.94597800
  |  107: Species H            10.60277300       37.08005100       47.67220200
  |  108: Species C            11.94887300       35.99453700       46.41721000
  |  109: Species C            14.25063700       36.26735800       46.89444900
  |  110: Species H            14.73144200       37.56462900       48.53790100
  |  111: Species H            13.77742400       40.61072800       44.95798400
  |  112: Species C            15.37373200       40.87463900       46.33593400
  |  113: Species H            16.76874800       41.14426700       47.93499600
  |  114: Species H             6.52951300       46.27825600       58.64327800
  |  115: Species H             7.32304600       51.39397800       57.51103400
  |  116: Species C             9.35308300       51.68758200       58.07726000
  |  117: Species H            11.46140700       51.87366900       58.38173400
  |  118: Species H             9.41870500       51.50596400       53.41386500
  |  119: Species C            10.61446500       53.27953000       53.44241600
  |  120: Species H            13.60052300       50.98011500       54.01802000
  |  121: Species C            12.91816800       52.99662600       53.79461400
  |  122: Species H            12.87041400       51.18565900       49.11267200
  |  123: Species C            14.54077700       50.15382700       49.97461900
  |  124: Species H            15.99912200       48.99194200       51.01099900
  |  125: Species H            10.62471300       32.53739000       50.71277700
  |  126: Species H            11.15556600       35.54747200       45.81889000
  |  127: Species C            13.26389000       35.73356000       46.12336400
  |  128: Species H            15.29392700       36.02716300       46.68959000
  |  129: Species H            16.08745900       41.14288600       45.55734600
  |  130: Species H             9.10662200       52.37029200       58.89002500
  |  131: Species H             9.75963900       53.92909800       53.25464700
  |  132: Species C            11.84806100       53.80531300       53.57162500
  |  133: Species H            13.91997200       53.41386900       53.89360500
  |  134: Species H            15.23931900       50.52908800       49.22541700
  |  135: Species H            13.51035100       35.05084900       45.31059900
  |  136: Species H            11.99226000       54.88375200       53.48784800
  |

  | The smallest distance between any two atoms is         1.08690476 AA.
  |
  | The first atom of this pair is atom number                     25 .
  | The second atom of this pair is atom number                    32 .

  Number of empty states per atom not set in control.in - providing a guess from actual geometry.
  | Total number of empty states used during s.c.f. cycle:      327
  If you use a very high smearing, use empty_states (per atom!) in control.in to increase this value.

  Structure-dependent array size parameters: 
  | Maximum number of distinct radial functions  :       18
  | Maximum number of basis functions            :     4008
  | Number of Kohn-Sham states (occupied + empty):      600
------------------------------------------------------------

------------------------------------------------------------
          Preparing all fixed parts of the calculation.
------------------------------------------------------------
  Determining machine precision:
    2.225073858507201E-308
  Setting up grids for atomic and cluster calculations.

  Creating wave function, potential, and density for free atoms.

  Species: H

  List of occupied orbitals and eigenvalues:
    n    l              occ      energy [Ha]    energy [eV]
    1    0           1.0000        -0.238386        -6.4868


  Species: C

  List of occupied orbitals and eigenvalues:
    n    l              occ      energy [Ha]    energy [eV]
    1    0           2.0000       -10.049212      -273.4530
    2    0           2.0000        -0.504761       -13.7352
    2    1           2.0000        -0.193631        -5.2690

  Creating fixed part of basis set: Ionic, confined, hydrogenic.
 
  H                    hydrogenic:
 
  List of hydrogenic basis orbitals: 
    n    l      effective z      eigenvalue [eV]  inner max. [A]     outer max. [A]     outer radius [A]   
    2    0         2.100000       -14.9965           0.193243           1.317208           5.373006
    2    1         3.500000       -41.6672           0.602369           0.602369           4.056063
    1    0         0.850000        -9.8292           0.624871           0.624871           5.373006
    2    1         3.700000       -46.5653           0.573622           0.573622           3.910002
    2    0         1.200000        -4.5995           0.334980           2.228188           5.505995
    3    2         7.000000       -74.0753           0.680699           0.680699           3.769201
 
 
  C                    hydrogenic:
 
  List of hydrogenic basis orbitals: 
    n    l      effective z      eigenvalue [eV]  inner max. [A]     outer max. [A]     outer radius [A]   
    2    1         1.700000        -9.8152           1.245706           1.245706           5.401630
    3    2         6.000000       -54.4226           0.792453           0.792453           4.178599
    2    0         4.900000       -81.6681           0.082559           0.562749           3.353238
    4    3         9.800000       -81.6681           0.863254           0.863254           4.028125
    3    1         5.200000       -40.8774           0.305389           1.215618           4.898362
    3    0         4.300000       -27.9508           0.091041           1.610311           5.401630
    5    4        14.400000      -112.8510           0.917666           0.917666           3.883070
    3    2         6.200000       -58.1113           0.763917           0.763917           4.077671
 

  Adding cutoff potential to free-atom effective potential.
  Creating atomic-like basis functions for current effective potential.

  Species H                   :

  List of atomic basis orbitals and eigenvalues:
    n    l      energy [Ha]    energy [eV]    outer radius [A]
    1    0        -0.238386        -6.4868       5.373006


  Species C                   :

  List of atomic basis orbitals and eigenvalues:
    n    l      energy [Ha]    energy [eV]    outer radius [A]
    1    0       -10.049212      -273.4530       1.934409
    2    0        -0.504761       -13.7352       5.271162
    2    1        -0.193631        -5.2690       5.401630

  Assembling full basis from fixed parts.
  | Species H :   atomic orbital   1 s accepted.
  | Species H :    hydro orbital   2 s accepted.
  | Species H :    hydro orbital   1 s accepted.
  | Species H :    hydro orbital   2 s accepted.
  | Species H :    hydro orbital   2 p accepted.
  | Species H :    hydro orbital   2 p accepted.
  | Species H :    hydro orbital   3 d accepted.
  | Species C :   atomic orbital   1 s accepted.
  | Species C :    hydro orbital   2 s accepted.
  | Species C :   atomic orbital   2 s accepted.
  | Species C :    hydro orbital   3 s accepted.
  | Species C :    hydro orbital   3 p accepted.
  | Species C :   atomic orbital   2 p accepted.
  | Species C :    hydro orbital   2 p accepted.
  | Species C :    hydro orbital   3 d accepted.
  | Species C :    hydro orbital   3 d accepted.
  | Species C :    hydro orbital   4 f accepted.
  | Species C :    hydro orbital   5 g accepted.
 
  Basis size parameters after reduction:
  | Total number of radial functions:       18
  | Total number of basis functions :     4008
 
  Per-task memory consumption for arrays in subroutine allocate_ext:
  |           4.505496MB.
  Testing on-site integration grid accuracy.
  |  Species  Function  <phi|h_atom|phi> (log., in eV)  <phi|h_atom|phi> (rad., in eV)
           1        1                 -6.4870767962                 -6.4871688290
           1        2                 13.5032046589                 13.5028982997
           1        3                 32.8195184817                 32.8119941656
           1        4                 33.8513856511                 33.7670005767 ***
           1        5                 28.8544614965                 28.8544615203
           1        6                 59.6326952547                 59.6327656460
           1        7                 60.2719308513                 60.2719305949
           2        8               -273.4529726040               -273.4529710464
           2        9                -10.7721037319                -10.7721022101
           2       10                 17.6044132601                 17.6044162063
           2       11                 53.7706460658                 53.7706913770
           2       12                 15.0973290362                 15.0973256030
           2       13                  3.8545134692                  3.8545724687
           2       14                 12.1156992592                 12.1182024431
           2       15                 29.4352039302                 29.4352041816
           2       16                 54.8741144708                 54.8740268729
           2       17                 59.3556032049                 59.3556031382
           2       18                 93.4551837154                 93.4551838009
 * Note: Onsite integrals marked "***" above are less accurate than
 * onsite_accuracy_threshold =    0.03000 eV. Usually, this is harmless.
 * When in doubt, tighten the "radial" and/or "radial_multiplier" flags to check.

  Preparing densities etc. for the partition functions (integrals / Hartree potential).

  Preparations completed.
  max(cpu_time)          :      0.194 s.
  Wall clock time (cpu1) :      0.180 s.
------------------------------------------------------------

------------------------------------------------------------
          Begin self-consistency loop: Initialization.

          Date     :  20210620, Time     :  175046.247
------------------------------------------------------------

  Initializing index lists of integration centers etc. from given atomic structure:
  | Number of centers in hartree potential         :       136
  | Number of centers in hartree multipole         :       136
  | Number of centers in electron density summation:       136
  | Number of centers in basis integrals           :       136
  | Number of centers in integrals                 :       136
  | Number of centers in hamiltonian               :       136
  * Using 56 tasks for Scalapack Eigenvalue solver.
  Detailed listing of tasks and assigned k-points:
  (for non-periodic systems, the "k-point" denotes an internal label only)
   Task     0 k-point     1 on d001
   Task     1 k-point     1 on d001
   Task     2 k-point     1 on d001
   Task     3 k-point     1 on d001
   Task     4 k-point     1 on d001
   Task     5 k-point     1 on d001
   Task     6 k-point     1 on d001
   Task     7 k-point     1 on d001
   Task     8 k-point     1 on d001
   Task     9 k-point     1 on d001
   Task    10 k-point     1 on d001
   Task    11 k-point     1 on d001
   Task    12 k-point     1 on d001
   Task    13 k-point     1 on d001
   Task    14 k-point     1 on d001
   Task    15 k-point     1 on d001
   Task    16 k-point     1 on d001
   Task    17 k-point     1 on d001
   Task    18 k-point     1 on d001
   Task    19 k-point     1 on d001
   Task    20 k-point     1 on d001
   Task    21 k-point     1 on d001
   Task    22 k-point     1 on d001
   Task    23 k-point     1 on d001
   Task    24 k-point     1 on d001
   Task    25 k-point     1 on d001
   Task    26 k-point     1 on d001
   Task    27 k-point     1 on d001
   Task    28 k-point     1 on d001
   Task    29 k-point     1 on d001
   Task    30 k-point     1 on d001
   Task    31 k-point     1 on d001
   Task    32 k-point     1 on d001
   Task    33 k-point     1 on d001
   Task    34 k-point     1 on d001
   Task    35 k-point     1 on d001
   Task    36 k-point     1 on d001
   Task    37 k-point     1 on d001
   Task    38 k-point     1 on d001
   Task    39 k-point     1 on d001
   Task    40 k-point     1 on d001
   Task    41 k-point     1 on d001
   Task    42 k-point     1 on d001
   Task    43 k-point     1 on d001
   Task    44 k-point     1 on d001
   Task    45 k-point     1 on d001
   Task    46 k-point     1 on d001
   Task    47 k-point     1 on d001
   Task    48 k-point     1 on d001
   Task    49 k-point     1 on d001
   Task    50 k-point     1 on d001
   Task    51 k-point     1 on d001
   Task    52 k-point     1 on d001
   Task    53 k-point     1 on d001
   Task    54 k-point     1 on d001
   Task    55 k-point     1 on d001
  Tasks:    56 split into      8 X      7 BLACS grid
  Calculating block size based on n_basis =         4008 max_nprow =            8 max_npcol =            7
  ScaLAPACK block size set to:           16
  Allocating        2.359 MB for ovlp
  Allocating        2.359 MB for ham
  Allocating        2.359 MB for eigenvec
  Required Scalapack workspace - INTEGER:            1 REAL:             1
  Partitioning the integration grid into batches with parallel hashing+maxmin method.
  | Number of batches:    21567
  | Maximal batch size:     200
  | Minimal batch size:      57
  | Average batch size:     104.915
  | Standard deviation of batch sizes:      36.824

  Integration load balanced across     56 MPI tasks.
  Work distribution over tasks is as follows:
  Task      0 has      40469 integration points.
  Task      1 has      40465 integration points.
  Task      2 has      40362 integration points.
  Task      3 has      40458 integration points.
  Task      4 has      40354 integration points.
  Task      5 has      40423 integration points.
  Task      6 has      40370 integration points.
  Task      7 has      40422 integration points.
  Task      8 has      40464 integration points.
  Task      9 has      40377 integration points.
  Task     10 has      40539 integration points.
  Task     11 has      40267 integration points.
  Task     12 has      40396 integration points.
  Task     13 has      40370 integration points.
  Task     14 has      40459 integration points.
  Task     15 has      40485 integration points.
  Task     16 has      40322 integration points.
  Task     17 has      40468 integration points.
  Task     18 has      40403 integration points.
  Task     19 has      40492 integration points.
  Task     20 has      40247 integration points.
  Task     21 has      40529 integration points.
  Task     22 has      40393 integration points.
  Task     23 has      40252 integration points.
  Task     24 has      40487 integration points.
  Task     25 has      40356 integration points.
  Task     26 has      40489 integration points.
  Task     27 has      40230 integration points.
  Task     28 has      40429 integration points.
  Task     29 has      40482 integration points.
  Task     30 has      40345 integration points.
  Task     31 has      40485 integration points.
  Task     32 has      40368 integration points.
  Task     33 has      40403 integration points.
  Task     34 has      40382 integration points.
  Task     35 has      40414 integration points.
  Task     36 has      40466 integration points.
  Task     37 has      40362 integration points.
  Task     38 has      40541 integration points.
  Task     39 has      40288 integration points.
  Task     40 has      40541 integration points.
  Task     41 has      40276 integration points.
  Task     42 has      40449 integration points.
  Task     43 has      40423 integration points.
  Task     44 has      40363 integration points.
  Task     45 has      40511 integration points.
  Task     46 has      40315 integration points.
  Task     47 has      40436 integration points.
  Task     48 has      40313 integration points.
  Task     49 has      40434 integration points.
  Task     50 has      40395 integration points.
  Task     51 has      40371 integration points.
  Task     52 has      40539 integration points.
  Task     53 has      40273 integration points.
  Task     54 has      40423 integration points.
  Task     55 has      40321 integration points.
  Initializing partition tables, free-atom densities, potentials, etc. across the integration grid (initialize_grid_storage).
  | initialize_grid_storage: Actual outermost partition radius vs. multipole_radius_free
  | (-- VB: in principle, multipole_radius_free should be larger, hence this output)
  | Species        1: Confinement radius =              6.000000000000000 AA, multipole_radius_free =              6.071692442739658 AA.
  | Species        1: outer_partition_radius set to              6.071692442739658 AA .
  | Species        2: Confinement radius =              6.000000000000000 AA, multipole_radius_free =              6.029870734432609 AA.
  | Species        2: outer_partition_radius set to              6.029870734432609 AA .
  | The sparse table of interatomic distances needs    195.1400 kbyte instead of   147.9680 kbyte of memory.
  | Using the partition_type stratmann_smoother will reduce your memory usage.
  | Net number of integration points:  2262696
  | of which are non-zero points    :  1739821
  Renormalizing the initial density to the exact electron count on the 3D integration grid.
  | Initial density: Formal number of electrons (from input files) :     546.0000000000
  | Integrated number of electrons on 3D grid     :     545.9984808217
  | Charge integration error                      :      -0.0015191783
  | Normalization factor for density and gradient :       1.0000027824
  Obtaining max. number of non-zero basis functions in each batch (get_n_compute_maxes).
  | Maximal number of non-zero basis functions:     1181
  Selecting the method for density update.
  Loop over occupied states selected for charge density update.
  Hamiltonian matrix size:
  | Size of matrix non-packed:               8034036
  | Size of matrix packed:         4439476
  Allocating       19.238 MB for KS_eigenvector
  use_local_index: Max. local matrix size =      2175348
  Task:     0 matrix size:     502246
  Task:     1 matrix size:     662717
  Task:     2 matrix size:     798030
  Task:     3 matrix size:    1651610
  Task:     4 matrix size:    1458552
  Task:     5 matrix size:    2040647
  Task:     6 matrix size:    1961226
  Task:     7 matrix size:     500740
  Task:     8 matrix size:     621313
  Task:     9 matrix size:     999796
  Task:    10 matrix size:     820181
  Task:    11 matrix size:     577004
  Task:    12 matrix size:    1490817
  Task:    13 matrix size:     937254
  Task:    14 matrix size:     512086
  Task:    15 matrix size:     987369
  Task:    16 matrix size:     624036
  Task:    17 matrix size:     995295
  Task:    18 matrix size:    1598454
  Task:    19 matrix size:     916755
  Task:    20 matrix size:     639313
  Task:    21 matrix size:     919108
  Task:    22 matrix size:     532955
  Task:    23 matrix size:    1081667
  Task:    24 matrix size:    1987109
  Task:    25 matrix size:    2110220
  Task:    26 matrix size:    1899814
  Task:    27 matrix size:    1457879
  Task:    28 matrix size:    1520638
  Task:    29 matrix size:    1801106
  Task:    30 matrix size:    1720866
  Task:    31 matrix size:    1570872
  Task:    32 matrix size:    1366693
  Task:    33 matrix size:     694930
  Task:    34 matrix size:     671075
  Task:    35 matrix size:     605630
  Task:    36 matrix size:    1411464
  Task:    37 matrix size:     887835
  Task:    38 matrix size:     784218
  Task:    39 matrix size:     453318
  Task:    40 matrix size:    1138514
  Task:    41 matrix size:     753375
  Task:    42 matrix size:    1242773
  Task:    43 matrix size:     527253
  Task:    44 matrix size:     872456
  Task:    45 matrix size:    1169261
  Task:    46 matrix size:     686485
  Task:    47 matrix size:     797608
  Task:    48 matrix size:     422754
  Task:    49 matrix size:    2175348
  Task:    50 matrix size:    1687075
  Task:    51 matrix size:    1888431
  Task:    52 matrix size:    1030961
  Task:    53 matrix size:     566503
  Task:    54 matrix size:     727655
  Task:    55 matrix size:     718841
  Integrating Hamiltonian matrix: batch-based integration.
  Time summed over all CPUs for integration: real work      636.084 s, elapsed     1130.027 s
  Time get_set_sparse_local_matrix_scalapack:     0.052342 s
  Start compute_balanced_batch_distribution
  Done load balancing, time needed:      0.025 s
  Integrating overlap matrix with loadbalancing
  Time summed over all CPUs for integration: real work      197.161 s, elapsed      224.403 s
  Time get_set_full_local_matrix_scalapack:     0.066393 s

  Updating Kohn-Sham eigenvalues and eigenvectors using ELSI and the ELPA eigensolver.
  Overlap matrix is not singular
  | Lowest and highest eigenvalues :  0.14E+02,  0.80E-04
  Finished singularity check of overlap matrix
  | Time :     0.649 s
  Finished Cholesky decomposition
  | Time :     0.180 s
  Finished transformation to standard eigenproblem
  | Time :     0.218 s
  Starting ELPA eigensolver
  Finished solving standard eigenproblem
  | Time :     0.758 s
  Finished back-transformation of eigenvectors
  | Time :     0.041 s

  Obtaining occupation numbers and chemical potential using ELSI.
  | Chemical potential (Fermi level):    -8.86711390 eV
  Writing Kohn-Sham eigenvalues.

  State    Occupation    Eigenvalue [Ha]    Eigenvalue [eV]
      1       2.00000         -10.183136         -277.09724
      2       2.00000         -10.183136         -277.09724
      3       2.00000         -10.180438         -277.02380
      4       2.00000         -10.180437         -277.02380
      5       2.00000         -10.180185         -277.01692
      6       2.00000         -10.180185         -277.01692
      7       2.00000         -10.179747         -277.00501
      8       2.00000         -10.179747         -277.00501
      9       2.00000         -10.179509         -276.99852
     10       2.00000         -10.179508         -276.99852
     11       2.00000         -10.179108         -276.98762
     12       2.00000         -10.179108         -276.98762
     13       2.00000         -10.178622         -276.97440
     14       2.00000         -10.178622         -276.97440
     15       2.00000         -10.177917         -276.95522
     16       2.00000         -10.177917         -276.95522
     17       2.00000         -10.177874         -276.95403
     18       2.00000         -10.177874         -276.95403
     19       2.00000         -10.177823         -276.95265
     20       2.00000         -10.177823         -276.95265
     21       2.00000         -10.177791         -276.95178
     22       2.00000         -10.177791         -276.95178
     23       2.00000         -10.177251         -276.93709
     24       2.00000         -10.177251         -276.93708
     25       2.00000         -10.176876         -276.92689
     26       2.00000         -10.176876         -276.92688
     27       2.00000         -10.176787         -276.92448
     28       2.00000         -10.176787         -276.92447
     29       2.00000         -10.176315         -276.91162
     30       2.00000         -10.176315         -276.91162
     31       2.00000         -10.176247         -276.90976
     32       2.00000         -10.176247         -276.90976
     33       2.00000         -10.175718         -276.89537
     34       2.00000         -10.175718         -276.89537
     35       2.00000         -10.175523         -276.89007
     36       2.00000         -10.175523         -276.89007
     37       2.00000         -10.175306         -276.88417
     38       2.00000         -10.175306         -276.88416
     39       2.00000         -10.175205         -276.88141
     40       2.00000         -10.175205         -276.88141
     41       2.00000         -10.174705         -276.86780
     42       2.00000         -10.174705         -276.86780
     43       2.00000         -10.174033         -276.84954
     44       2.00000         -10.174033         -276.84953
     45       2.00000         -10.174032         -276.84951
     46       2.00000         -10.174032         -276.84950
     47       2.00000         -10.173982         -276.84813
     48       2.00000         -10.173982         -276.84813
     49       2.00000         -10.172938         -276.81974
     50       2.00000         -10.172938         -276.81974
     51       2.00000         -10.172621         -276.81111
     52       2.00000         -10.172621         -276.81111
     53       2.00000         -10.171746         -276.78730
     54       2.00000         -10.171746         -276.78730
     55       2.00000         -10.171541         -276.78172
     56       2.00000         -10.171541         -276.78171
     57       2.00000         -10.171484         -276.78017
     58       2.00000         -10.171484         -276.78016
     59       2.00000         -10.171329         -276.77595
     60       2.00000         -10.171329         -276.77595
     61       2.00000         -10.170080         -276.74197
     62       2.00000         -10.170080         -276.74197
     63       2.00000         -10.168143         -276.68924
     64       2.00000         -10.168140         -276.68917
     65       2.00000         -10.167771         -276.67914
     66       2.00000         -10.167771         -276.67914
     67       2.00000         -10.166861         -276.65437
     68       2.00000         -10.166857         -276.65426
     69       2.00000         -10.166312         -276.63943
     70       2.00000         -10.166312         -276.63943
     71       2.00000         -10.166022         -276.63153
     72       2.00000         -10.166022         -276.63152
     73       2.00000         -10.165062         -276.60541
     74       2.00000         -10.165062         -276.60541
     75       2.00000         -10.164575         -276.59215
     76       2.00000         -10.164575         -276.59215
     77       2.00000         -10.164393         -276.58721
     78       2.00000         -10.164393         -276.58721
     79       2.00000         -10.163798         -276.57101
     80       2.00000         -10.163798         -276.57101
     81       2.00000         -10.163287         -276.55712
     82       2.00000         -10.163286         -276.55709
     83       2.00000          -1.028305          -27.98160
     84       2.00000          -1.025366          -27.90163
     85       2.00000          -1.020501          -27.76925
     86       2.00000          -1.014819          -27.61463
     87       2.00000          -1.014724          -27.61205
     88       2.00000          -1.013717          -27.58463
     89       2.00000          -1.010854          -27.50675
     90       2.00000          -1.010639          -27.50087
     91       2.00000          -1.008811          -27.45114
     92       2.00000          -1.008768          -27.44996
     93       2.00000          -1.004205          -27.32580
     94       2.00000          -0.999137          -27.18790
     95       2.00000          -0.984527          -26.79034
     96       2.00000          -0.965862          -26.28244
     97       2.00000          -0.946433          -25.75376
     98       2.00000          -0.941360          -25.61570
     99       2.00000          -0.940098          -25.58137
    100       2.00000          -0.936715          -25.48930
    101       2.00000          -0.915643          -24.91592
    102       2.00000          -0.908920          -24.73296
    103       2.00000          -0.906934          -24.67892
    104       2.00000          -0.905445          -24.63841
    105       2.00000          -0.900569          -24.50573
    106       2.00000          -0.896987          -24.40827
    107       2.00000          -0.895142          -24.35805
    108       2.00000          -0.895138          -24.35795
    109       2.00000          -0.894795          -24.34861
    110       2.00000          -0.894613          -24.34367
    111       2.00000          -0.893079          -24.30191
    112       2.00000          -0.892955          -24.29854
    113       2.00000          -0.892420          -24.28399
    114       2.00000          -0.891936          -24.27083
    115       2.00000          -0.891467          -24.25806
    116       2.00000          -0.891465          -24.25801
    117       2.00000          -0.888657          -24.18158
    118       2.00000          -0.885225          -24.08819
    119       2.00000          -0.884777          -24.07600
    120       2.00000          -0.867227          -23.59844
    121       2.00000          -0.862636          -23.47353
    122       2.00000          -0.855267          -23.27301
    123       2.00000          -0.834524          -22.70857
    124       2.00000          -0.815351          -22.18682
    125       2.00000          -0.789765          -21.49061
    126       2.00000          -0.789105          -21.47265
    127       2.00000          -0.780619          -21.24172
    128       2.00000          -0.775818          -21.11107
    129       2.00000          -0.769239          -20.93205
    130       2.00000          -0.767127          -20.87460
    131       2.00000          -0.760781          -20.70190
    132       2.00000          -0.760357          -20.69037
    133       2.00000          -0.759119          -20.65667
    134       2.00000          -0.758262          -20.63337
    135       2.00000          -0.757242          -20.60559
    136       2.00000          -0.757160          -20.60338
    137       2.00000          -0.756265          -20.57901
    138       2.00000          -0.756252          -20.57865
    139       2.00000          -0.753770          -20.51113
    140       2.00000          -0.752154          -20.46716
    141       2.00000          -0.750465          -20.42118
    142       2.00000          -0.750035          -20.40950
    143       2.00000          -0.749331          -20.39034
    144       2.00000          -0.743878          -20.24195
    145       2.00000          -0.741367          -20.17363
    146       2.00000          -0.731945          -19.91725
    147       2.00000          -0.718810          -19.55981
    148       2.00000          -0.716134          -19.48699
    149       2.00000          -0.713786          -19.42311
    150       2.00000          -0.712372          -19.38462
    151       2.00000          -0.686564          -18.68234
    152       2.00000          -0.683927          -18.61061
    153       2.00000          -0.683690          -18.60416
    154       2.00000          -0.670448          -18.24382
    155       2.00000          -0.670086          -18.23397
    156       2.00000          -0.669915          -18.22930
    157       2.00000          -0.664239          -18.07485
    158       2.00000          -0.663163          -18.04557
    159       2.00000          -0.660631          -17.97667
    160       2.00000          -0.652216          -17.74769
    161       2.00000          -0.650550          -17.70237
    162       2.00000          -0.647153          -17.60994
    163       2.00000          -0.646682          -17.59710
    164       2.00000          -0.643401          -17.50783
    165       2.00000          -0.642939          -17.49526
    166       2.00000          -0.642720          -17.48930
    167       2.00000          -0.641070          -17.44442
    168       2.00000          -0.640807          -17.43725
    169       2.00000          -0.640566          -17.43068
    170       2.00000          -0.637932          -17.35900
    171       2.00000          -0.637616          -17.35041
    172       2.00000          -0.636414          -17.31770
    173       2.00000          -0.634961          -17.27816
    174       2.00000          -0.628566          -17.10416
    175       2.00000          -0.626877          -17.05819
    176       2.00000          -0.615166          -16.73953
    177       2.00000          -0.611687          -16.64485
    178       2.00000          -0.605287          -16.47069
    179       2.00000          -0.595603          -16.20717
    180       2.00000          -0.591587          -16.09790
    181       2.00000          -0.590059          -16.05631
    182       2.00000          -0.585082          -15.92088
    183       2.00000          -0.584856          -15.91475
    184       2.00000          -0.583134          -15.86789
    185       2.00000          -0.579136          -15.75910
    186       2.00000          -0.578550          -15.74315
    187       2.00000          -0.578356          -15.73788
    188       2.00000          -0.578070          -15.73009
    189       2.00000          -0.577440          -15.71293
    190       2.00000          -0.576854          -15.69699
    191       2.00000          -0.576667          -15.69190
    192       2.00000          -0.575607          -15.66307
    193       2.00000          -0.575162          -15.65095
    194       2.00000          -0.574799          -15.64107
    195       2.00000          -0.573772          -15.61312
    196       2.00000          -0.571240          -15.54424
    197       2.00000          -0.569795          -15.50490
    198       2.00000          -0.569645          -15.50082
    199       2.00000          -0.569187          -15.48837
    200       2.00000          -0.569037          -15.48427
    201       2.00000          -0.567860          -15.45227
    202       2.00000          -0.567547          -15.44374
    203       2.00000          -0.567477          -15.44183
    204       2.00000          -0.567280          -15.43648
    205       2.00000          -0.567212          -15.43463
    206       2.00000          -0.566896          -15.42602
    207       2.00000          -0.557519          -15.17086
    208       2.00000          -0.554838          -15.09791
    209       2.00000          -0.549849          -14.96215
    210       2.00000          -0.535684          -14.57671
    211       2.00000          -0.533768          -14.52457
    212       2.00000          -0.523926          -14.25674
    213       2.00000          -0.522393          -14.21505
    214       2.00000          -0.520464          -14.16253
    215       2.00000          -0.520141          -14.15375
    216       2.00000          -0.519806          -14.14463
    217       2.00000          -0.517616          -14.08505
    218       2.00000          -0.517243          -14.07489
    219       2.00000          -0.513326          -13.96832
    220       2.00000          -0.512758          -13.95286
    221       2.00000          -0.511882          -13.92901
    222       2.00000          -0.511679          -13.92350
    223       2.00000          -0.510997          -13.90494
    224       2.00000          -0.510600          -13.89414
    225       2.00000          -0.510148          -13.88185
    226       2.00000          -0.509975          -13.87713
    227       2.00000          -0.508120          -13.82665
    228       2.00000          -0.507665          -13.81426
    229       2.00000          -0.506079          -13.77111
    230       2.00000          -0.503372          -13.69745
    231       2.00000          -0.502019          -13.66063
    232       2.00000          -0.501657          -13.65078
    233       2.00000          -0.500302          -13.61391
    234       2.00000          -0.499557          -13.59364
    235       2.00000          -0.499123          -13.58182
    236       2.00000          -0.498995          -13.57834
    237       2.00000          -0.498890          -13.57548
    238       2.00000          -0.498310          -13.55972
    239       2.00000          -0.498065          -13.55305
    240       2.00000          -0.496832          -13.51949
    241       2.00000          -0.496192          -13.50208
    242       2.00000          -0.495445          -13.48174
    243       2.00000          -0.485076          -13.19960
    244       2.00000          -0.483697          -13.16207
    245       2.00000          -0.478994          -13.03408
    246       2.00000          -0.460970          -12.54364
    247       2.00000          -0.446457          -12.14870
    248       2.00000          -0.435169          -11.84155
    249       2.00000          -0.430847          -11.72393
    250       2.00000          -0.425784          -11.58616
    251       2.00000          -0.422428          -11.49484
    252       2.00000          -0.419850          -11.42470
    253       2.00000          -0.418300          -11.38252
    254       2.00000          -0.416438          -11.33185
    255       2.00000          -0.413220          -11.24429
    256       2.00000          -0.412556          -11.22621
    257       2.00000          -0.411246          -11.19058
    258       2.00000          -0.410105          -11.15952
    259       2.00000          -0.409911          -11.15424
    260       2.00000          -0.408574          -11.11785
    261       2.00000          -0.408478          -11.11524
    262       2.00000          -0.407709          -11.09434
    263       2.00000          -0.406645          -11.06538
    264       2.00000          -0.406402          -11.05875
    265       2.00000          -0.405186          -11.02566
    266       2.00000          -0.403747          -10.98651
    267       2.00000          -0.401507          -10.92556
    268       2.00000          -0.400608          -10.90109
    269       2.00000          -0.392240          -10.67339
    270       2.00000          -0.388213          -10.56381
    271       2.00000          -0.383287          -10.42976
    272       2.00000          -0.367811          -10.00865
    273       2.00000          -0.332269           -9.04150
    274       0.00000          -0.286939           -7.80802
    275       0.00000          -0.246421           -6.70545
    276       0.00000          -0.235408           -6.40577
    277       0.00000          -0.228641           -6.22163
    278       0.00000          -0.224683           -6.11393
    279       0.00000          -0.219931           -5.98464
    280       0.00000          -0.219153           -5.96346
    281       0.00000          -0.216216           -5.88354
    282       0.00000          -0.215602           -5.86683
    283       0.00000          -0.214460           -5.83575
    284       0.00000          -0.213398           -5.80685
    285       0.00000          -0.212543           -5.78358
    286       0.00000          -0.212332           -5.77784
    287       0.00000          -0.212211           -5.77457
    288       0.00000          -0.211651           -5.75930
    289       0.00000          -0.210075           -5.71644
    290       0.00000          -0.209867           -5.71078
    291       0.00000          -0.208884           -5.68404
    292       0.00000          -0.206131           -5.60912
    293       0.00000          -0.204406           -5.56218
    294       0.00000          -0.203450           -5.53616
    295       0.00000          -0.201726           -5.48925
    296       0.00000          -0.200621           -5.45919
    297       0.00000          -0.192144           -5.22851
    298       0.00000          -0.176187           -4.79429
    299       0.00000          -0.171560           -4.66837
    300       0.00000          -0.159955           -4.35260
    301       0.00000          -0.131568           -3.58016
    302       0.00000          -0.095121           -2.58836
    303       0.00000          -0.090161           -2.45341
    304       0.00000          -0.087045           -2.36860
    305       0.00000          -0.081145           -2.20808
    306       0.00000          -0.079318           -2.15836
    307       0.00000          -0.075245           -2.04751
    308       0.00000          -0.073028           -1.98719
    309       0.00000          -0.072879           -1.98313
    310       0.00000          -0.071760           -1.95270
    311       0.00000          -0.070675           -1.92318
    312       0.00000          -0.070069           -1.90666
    313       0.00000          -0.068433           -1.86216
    314       0.00000          -0.068129           -1.85388
    315       0.00000          -0.067565           -1.83853
[...]
    430       0.00000           0.202340            5.50596
    431       0.00000           0.205052            5.57976
    432       0.00000           0.205621            5.59523
    433       0.00000           0.207886            5.65687
    434       0.00000           0.209603            5.70358
    435       0.00000           0.209766            5.70802
    436       0.00000           0.211270            5.74895
    437       0.00000           0.212820            5.79112
    438       0.00000           0.213595            5.81223
    439       0.00000           0.215138            5.85419
    440       0.00000           0.216204            5.88320
    441       0.00000           0.216880            5.90161
    442       0.00000           0.216890            5.90189
    443       0.00000           0.217137            5.90860
    444       0.00000           0.218420            5.94350
    445       0.00000           0.218876            5.95591
    446       0.00000           0.220893            6.01080
    447       0.00000           0.222626            6.05797
    448       0.00000           0.222628            6.05803
    449       0.00000           0.223502            6.08180
    450       0.00000           0.224613            6.11202
    451       0.00000           0.225336            6.13172
    452       0.00000           0.226002            6.14982
    453       0.00000           0.226702            6.16888
    454       0.00000           0.227254            6.18389
    455       0.00000           0.228964            6.23042
    456       0.00000           0.229207            6.23704
    457       0.00000           0.229885            6.25548
    458       0.00000           0.230230            6.26489
    459       0.00000           0.231184            6.29083
    460       0.00000           0.231634            6.30308
    461       0.00000           0.231803            6.30767
    462       0.00000           0.233293            6.34824
    463       0.00000           0.233726            6.36000
    464       0.00000           0.233820            6.36257
    465       0.00000           0.235139            6.39845
    466       0.00000           0.235716            6.41415
    467       0.00000           0.235728            6.41450
    468       0.00000           0.237145            6.45304
    469       0.00000           0.238073            6.47829
    470       0.00000           0.238631            6.49348
    471       0.00000           0.238658            6.49422
    472       0.00000           0.241065            6.55971
    473       0.00000           0.241772            6.57894
    474       0.00000           0.244743            6.65980
    475       0.00000           0.245611            6.68341
    476       0.00000           0.245713            6.68619
    477       0.00000           0.246962            6.72019
    478       0.00000           0.247207            6.72685
    479       0.00000           0.249822            6.79799
    480       0.00000           0.251665            6.84814
    481       0.00000           0.252790            6.87878
    482       0.00000           0.253410            6.89564
    483       0.00000           0.254115            6.91483
    484       0.00000           0.255862            6.96237
    485       0.00000           0.255982            6.96562
    486       0.00000           0.256600            6.98244
    487       0.00000           0.258807            7.04248
    488       0.00000           0.260123            7.07832
    489       0.00000           0.260556            7.09009
    490       0.00000           0.261240            7.10870
    491       0.00000           0.262572            7.14494
    492       0.00000           0.262813            7.15150
    493       0.00000           0.263923            7.18170
    494       0.00000           0.264283            7.19150
    495       0.00000           0.266083            7.24049
    496       0.00000           0.268322            7.30142
    497       0.00000           0.269243            7.32647
    498       0.00000           0.269694            7.33876
    499       0.00000           0.269952            7.34577
    500       0.00000           0.271196            7.37961
    501       0.00000           0.274174            7.46066
    502       0.00000           0.274746            7.47622
    503       0.00000           0.277042            7.53870
    504       0.00000           0.277319            7.54623
    505       0.00000           0.278062            7.56645
    506       0.00000           0.278308            7.57315
    507       0.00000           0.279476            7.60494
    508       0.00000           0.282299            7.68175
    509       0.00000           0.283560            7.71605
    510       0.00000           0.284049            7.72937
    511       0.00000           0.286004            7.78257
    512       0.00000           0.286013            7.78282
    513       0.00000           0.288831            7.85950
    514       0.00000           0.289443            7.87616
    515       0.00000           0.290954            7.91726
    516       0.00000           0.292613            7.96240
    517       0.00000           0.292804            7.96759
    518       0.00000           0.295406            8.03840
    519       0.00000           0.295870            8.05104
    520       0.00000           0.297023            8.08241
    521       0.00000           0.298690            8.12777
    522       0.00000           0.299848            8.15927
    523       0.00000           0.300675            8.18177
    524       0.00000           0.300913            8.18827
    525       0.00000           0.301642            8.20808
    526       0.00000           0.302539            8.23251
    527       0.00000           0.303294            8.25306
    528       0.00000           0.303414            8.25631
    529       0.00000           0.306908            8.35138
    530       0.00000           0.307531            8.36834
    531       0.00000           0.308872            8.40484
    532       0.00000           0.310362            8.44538
    533       0.00000           0.311976            8.48929
    534       0.00000           0.313184            8.52216
    535       0.00000           0.313197            8.52252
    536       0.00000           0.314481            8.55746
    537       0.00000           0.315529            8.58597
    538       0.00000           0.316388            8.60936
    539       0.00000           0.319201            8.68590
    540       0.00000           0.319634            8.69768
    541       0.00000           0.323866            8.81284
    542       0.00000           0.326565            8.88628
    543       0.00000           0.327474            8.91101
    544       0.00000           0.328879            8.94925
    545       0.00000           0.329361            8.96237
    546       0.00000           0.330070            8.98165
    547       0.00000           0.330252            8.98661
    548       0.00000           0.332366            9.04413
    549       0.00000           0.332558            9.04936
    550       0.00000           0.334381            9.09897
    551       0.00000           0.335431            9.12755
    552       0.00000           0.335594            9.13197
    553       0.00000           0.337753            9.19074
    554       0.00000           0.339637            9.24199
    555       0.00000           0.341446            9.29121
    556       0.00000           0.345131            9.39149
    557       0.00000           0.347242            9.44895
    558       0.00000           0.348306            9.47788
    559       0.00000           0.348447            9.48174
    560       0.00000           0.349899            9.52123
    561       0.00000           0.351964            9.57744
    562       0.00000           0.353042            9.60676
    563       0.00000           0.354801            9.65462
    564       0.00000           0.355687            9.67874
    565       0.00000           0.358455            9.75405
    566       0.00000           0.358556            9.75681
    567       0.00000           0.359425            9.78044
    568       0.00000           0.363284            9.88547
    569       0.00000           0.364837            9.92773
    570       0.00000           0.365130            9.93569
    571       0.00000           0.366536            9.97395
    572       0.00000           0.368648           10.03143
    573       0.00000           0.370720           10.08780
    574       0.00000           0.372440           10.13461
    575       0.00000           0.372493           10.13605
    576       0.00000           0.373221           10.15585
    577       0.00000           0.376328           10.24042
    578       0.00000           0.376703           10.25062
    579       0.00000           0.378353           10.29550
    580       0.00000           0.380062           10.34201
    581       0.00000           0.381681           10.38607
    582       0.00000           0.382812           10.41685
    583       0.00000           0.383283           10.42967
    584       0.00000           0.384852           10.47236
    585       0.00000           0.387944           10.55650
    586       0.00000           0.388190           10.56319
    587       0.00000           0.390648           10.63007
    588       0.00000           0.392193           10.67211
    589       0.00000           0.393429           10.70574
    590       0.00000           0.396732           10.79562
    591       0.00000           0.397698           10.82192
    592       0.00000           0.398985           10.85694
    593       0.00000           0.400039           10.88563
    594       0.00000           0.403420           10.97761
    595       0.00000           0.404410           11.00455
    596       0.00000           0.405623           11.03756
    597       0.00000           0.407354           11.08466
    598       0.00000           0.408136           11.10594
    599       0.00000           0.408761           11.12296
    600       0.00000           0.410880           11.18060

  Highest occupied state (VBM) at     -4.23180951 eV
  | Occupation number:      2.00000000

  Lowest unoccupied state (CBM) at    -3.09579935 eV
  | Occupation number:      0.00000000

  Overall HOMO-LUMO gap:      1.13601016 eV.

  Total energy components:
  | Sum of eigenvalues            :       -1793.20699912 Ha      -48795.64514124 eV
  | XC energy correction          :        -462.80214696 Ha      -12593.48716847 eV
  | XC potential correction       :         594.56162125 Ha       16178.84488486 eV
  | Free-atom electrostatic energy:       -1372.02685703 Ha      -37334.75035087 eV
  | Hartree energy correction     :        -122.37793968 Ha       -3330.07317091 eV
  | Entropy correction            :           0.00000000 Ha           0.00000000 eV
  | ---------------------------
  | Total energy                  :       -3155.85232154 Ha      -85875.11094663 eV
  | Total energy, T -> 0          :       -3155.85232154 Ha      -85875.11094663 eV  <-- do not rely on this value for anything but (periodic) metals
  | Electronic free energy        :       -3155.85232154 Ha      -85875.11094663 eV

  Derived energy quantities:
  | Kinetic energy                :        3150.63650462 Ha       85733.18134693 eV
  | Electrostatic energy          :       -5843.68667919 Ha     -159014.80512509 eV
  | Energy correction for multipole
  | error in Hartree potential    :          -0.38256644 Ha         -10.41016262 eV
  | Sum of eigenvalues per atom                           :        -358.79150839 eV
  | Total energy (T->0) per atom                          :        -631.43463931 eV  <-- do not rely on this value for anything but (periodic) metals
  | Electronic free energy per atom                       :        -631.43463931 eV
  End evaluation of scaled ZORA corrections.
  | Time for scaled ZORA corrections           :       22.125 s          22.137 s
------------------------------------------------------------

  Energy and forces in a compact form:
  | Total energy uncorrected      :         -0.858751109466348E+05 eV
  | Total energy corrected        :         -0.858751109466348E+05 eV  <-- do not rely on this value for anything but (periodic) metals
  | Electronic free energy        :         -0.858751109466348E+05 eV

  ------------------------------------ 
  Start decomposition of the XC Energy 
  ------------------------------------ 
  X and C from original XC functional choice 
  Hartree-Fock Energy :          0.000000000 Ha              0.000000000 eV
  X Energy            :       -444.482599408 Ha         -12094.986916043 eV
  C Energy            :        -18.319547557 Ha           -498.500252431 eV
  Total XC Energy     :       -462.802146964 Ha         -12593.487168474 eV
  ------------------------------------ 
  LDA X and C from self-consistent density 
  X Energy LDA        :       -402.658348273 Ha         -10956.891136979 eV
  C Energy LDA        :        -35.228577161 Ha           -958.618358503 eV
  ------------------------------------ 
  End decomposition of the XC Energy 
  ------------------------------------ 

------------------------------------------------------------

------------------------------------------------------------------------------
  Final output of selected total energy values:

  The following output summarizes some interesting total energy values
  at the end of a run (AFTER all relaxation, molecular dynamics, etc.).

  | Total energy of the DFT / Hartree-Fock s.c.f. calculation      :         -85875.110946635 eV
  | Final zero-broadening corrected energy (caution - metals only) :         -85875.110946635 eV
  | For reference only, the value of 1 Hartree used in FHI-aims is :             27.211384500 eV

  Before relying on these values, please be sure to understand exactly which
  total energy value is referred to by a given number. Different objects may
  all carry the same name 'total energy'. Definitions:

  Total energy of the DFT / Hartree-Fock s.c.f. calculation:
  | Note that this energy does not include ANY quantities calculated after the
  | s.c.f. cycle, in particular not ANY RPA, MP2, etc. many-body perturbation terms.
  | Scalar relativistic effects have been included in the 'scaled ZORA' approximation.

  Final zero-broadening corrected energy:
  | For metallic systems only, a broadening of the occupation numbers at the Fermi
  | level can be extrapolated back to zero broadening by an electron-gas inspired
  | formula. For all systems that are not real metals, this value can be
  | meaningless and should be avoided.

------------------------------------------------------------------------------
  Methods described in the following list of references were used in this FHI-aims run.
  If you publish the results, please make sure to cite these reference if they apply.
  FHI-aims is an academic code, and for our developers (often, Ph.D. students
  and postdocs), scientific credit in the community is essential.
  Thank you for helping us!

  For any use of FHI-aims, please cite:

    Volker Blum, Ralf Gehrke, Felix Hanke, Paula Havu, Ville Havu,
    Xinguo Ren, Karsten Reuter, and Matthias Scheffler
    'Ab initio molecular simulations with numeric atom-centered orbitals'
    Computer Physics Communications 180, 2175-2196 (2009)
    http://dx.doi.org/10.1016/j.cpc.2009.06.022


  The scalable eigensolver library ELPA was used in your run.
  ELPA is essential especially for large systems on hundreds or thousands of CPUs.
  For ELPA, please cite:

    Andreas Marek, Volker Blum, Rainer Johanni, Ville Havu, Bruno Lang,
    Thomas Auckenthaler, Alexander Heinecke, Hans-Joachim Bungartz, and Hermann Lederer,
    'The ELPA Library - Scalable Parallel Eigenvalue Solutions
    for Electronic Structure Theory and Computational Science'
    The Journal of Physics: Condensed Matter 26, 213201 (2014).
    http://dx.doi.org/10.1088/0953-8984/26/21/213201


  The ELSI infrastructure was used in your run to solve the Kohn-Sham electronic structure.
  Please check out http://elsi-interchange.org to learn more.
  If scalability is important for your project, please acknowledge ELSI by citing:

    V. W-z. Yu, F. Corsetti, A. Garcia, W. P. Huhn, M. Jacquelin, W. Jia,
    B. Lange, L. Lin, J. Lu, W. Mi, A. Seifitokaldani, A. Vazquez-Mayagoitia,
    C. Yang, H. Yang, and V. Blum
    'ELSI: A unified software interface for Kohn-Sham electronic structure solvers'
    Computer Physics Communications 222, 267-285 (2018).
    http://dx.doi.org/10.1016/j.cpc.2017.09.007


  For the real-space grid partitioning and parallelization used in this calculation, please cite:

    Ville Havu, Volker Blum, Paula Havu, and Matthias Scheffler,
    'Efficient O(N) integration for all-electron electronic structure calculation'
    'using numerically tabulated basis functions'
    Journal of Computational Physics 228, 8367-8379 (2009).
    http://dx.doi.org/10.1016/j.jcp.2009.08.008

  Of course, there are many other important community references, e.g., those cited in the
  above references. Our list is limited to references that describe implementations in the
  FHI-aims code. The reason is purely practical (length of this list) - please credit others as well.

------------------------------------------------------------
          Leaving FHI-aims.
          Date     :  20210620, Time     :  180006.818

          Computational steps:
          | Number of self-consistency cycles          :           19
          | Number of SCF (re)initializations          :            1

          Detailed time accounting                     :  max(cpu_time)    wall_clock(cpu1)
          | Total time                                 :      560.465 s         561.004 s
          | Preparation time                           :        0.194 s           0.180 s
          | Boundary condition initalization           :        0.001 s           0.004 s
          | Grid partitioning                          :        3.335 s           3.338 s
          | Preloading free-atom quantities on grid    :        0.013 s           0.017 s
          | Free-atom superposition energy             :        0.296 s           0.297 s
          | Total time for integrations                :      271.007 s         271.129 s
          | Total time for solution of K.-S. equations :       25.287 s          25.323 s
          | Total time for density update              :      172.839 s         172.757 s
          | Total time for mixing                      :        0.484 s           0.488 s
          | Total time for Hartree multipole update    :        0.475 s           0.483 s
          | Total time for Hartree multipole sum       :       60.000 s          59.998 s
          | Total time for total energy evaluation     :        0.010 s           0.036 s
          | Total time for scaled ZORA corrections     :       22.125 s          22.137 s

          Partial memory accounting:
          | Residual value for overall tracked memory usage across tasks :     0.000000 MB (should be 0.000000 MB)
          | Peak values for overall tracked memory usage (after allocating zora_vector2):
          |   Minimum:       60.705 MB (on task 49)
          |   Maximum:       82.980 MB (on task 50)
          |   Average:       69.460 MB
          | Largest tracked array allocation (+KS_eigenvector):
          |   Minimum:       19.238 MB (on task  1)
          |   Maximum:       19.990 MB (on task 50)
          |   Average:       19.262 MB
          Note:  These values currently only include a subset of arrays which are explicitly tracked.
          The "true" memory usage will be greater.

          Have a nice day.
------------------------------------------------------------
