  MPI-parallelism will be employed.
------------------------------------------------------------
          Invoking FHI-aims ...
          Version 180607
          Git rev. (modified): 6724847 Fix JSON memory corruption in scf_solver
          Compiled on 2018/06/27 at 16:00:31 on host coe.psc.edu.

          When using FHI-aims, please cite the following reference:

          Volker Blum, Ralf Gehrke, Felix Hanke, Paula Havu,
          Ville Havu, Xinguo Ren, Karsten Reuter, and Matthias Scheffler,
          'Ab Initio Molecular Simulations with Numeric Atom-Centered Orbitals',
          Computer Physics Communications 180, 2175-2196 (2009)

          For any questions about FHI-aims, please visit the aimsclub website
          with its forums and wiki. Contributions to both the forums and the
          wiki are warmly encouraged - they are for you, and everyone is welcome there.

------------------------------------------------------------



  Date     :  20210620, Time     :  165238.432
  Time zero on CPU 1             :   0.223834000000000E+00  s.
  Internal wall clock time zero  :           393439958.432  s.

  FHI-aims created a unique identifier for this run for later identification
  aims_uuid : 0BF0FFA3-0A16-4DF8-A10F-149387FE2F28

  Using       56 parallel tasks.
  Task        0 on host d021 reporting.
  Task        1 on host d021 reporting.
  Task        2 on host d021 reporting.
  Task        3 on host d021 reporting.
  Task        4 on host d021 reporting.
  Task        5 on host d021 reporting.
  Task        6 on host d021 reporting.
  Task        7 on host d021 reporting.
  Task        8 on host d021 reporting.
  Task        9 on host d021 reporting.
  Task       10 on host d021 reporting.
  Task       11 on host d021 reporting.
  Task       12 on host d021 reporting.
  Task       13 on host d021 reporting.
  Task       14 on host d021 reporting.
  Task       15 on host d021 reporting.
  Task       16 on host d021 reporting.
  Task       17 on host d021 reporting.
  Task       18 on host d021 reporting.
  Task       19 on host d021 reporting.
  Task       20 on host d021 reporting.
  Task       21 on host d021 reporting.
  Task       22 on host d021 reporting.
  Task       23 on host d021 reporting.
  Task       24 on host d021 reporting.
  Task       25 on host d021 reporting.
  Task       26 on host d021 reporting.
  Task       27 on host d021 reporting.
  Task       28 on host d021 reporting.
  Task       29 on host d021 reporting.
  Task       30 on host d021 reporting.
  Task       31 on host d021 reporting.
  Task       32 on host d021 reporting.
  Task       33 on host d021 reporting.
  Task       34 on host d021 reporting.
  Task       35 on host d021 reporting.
  Task       36 on host d021 reporting.
  Task       37 on host d021 reporting.
  Task       38 on host d021 reporting.
  Task       39 on host d021 reporting.
  Task       40 on host d021 reporting.
  Task       41 on host d021 reporting.
  Task       42 on host d021 reporting.
  Task       43 on host d021 reporting.
  Task       44 on host d021 reporting.
  Task       45 on host d021 reporting.
  Task       46 on host d021 reporting.
  Task       47 on host d021 reporting.
  Task       48 on host d021 reporting.
  Task       49 on host d021 reporting.
  Task       50 on host d021 reporting.
  Task       51 on host d021 reporting.
  Task       52 on host d021 reporting.
  Task       53 on host d021 reporting.
  Task       54 on host d021 reporting.
  Task       55 on host d021 reporting.

  Performing system and environment tests:
  *** Environment variable OMP_NUM_THREADS is not set
  *** For performance reasons you might want to set it to 1
  | Stacksize not measured: no C compiler
  | Checking for scalapack...
  | Testing pdtran()...
  | All pdtran() tests passed.

  Obtaining array dimensions for all initial allocations:
  
  -----------------------------------------------------------------------
  Parsing control.in (first pass over file, find array dimensions only).
  The contents of control.in will be repeated verbatim below
  unless switched off by setting 'verbatim_writeout .false.' .
  in the first line of control.in .
  -----------------------------------------------------------------------
  
  #===============================================================================
  # FHI-aims file: ./Runs/es/control.in
  # Created using the Atomic Simulation Environment (ASE)
  # Mon Jan 13 16:04:38 2020
  #===============================================================================
  xc                                 pbe
  relativistic                       zora scalar 1e-12
  occupation_type                    gaussian 0.0001
  load_balancing                     .true.
  KS_method                          scalapack_fast
  mixer                              pulay
  n_max_pulay                        5
  charge_mix_param                   0.4
  sc_accuracy_etot                   1e-6
  sc_accuracy_eev                    1e-4
  sc_accuracy_rho                    1e-6
  sc_iter_limit                      100
  prodbas_threshold                  1e-4
  basis_threshold                    1e-5
  override_illconditioning           .true.
  use_logsbt                         .true.
  spin                               none
  charge                             0
  #===============================================================================
  
  ################################################################################
  #
  #  FHI-aims code project
  # Volker Blum, Fritz Haber Institute Berlin, 2009
  #
  #  Suggested "tight" defaults for H atom (to be pasted into control.in file)
  #
  ################################################################################
    species        H
  #     global species definitions
      nucleus             1
      mass                1.00794
  #
      l_hartree           6
  #
      cut_pot             4.0  2.0  1.0
      basis_dep_cutoff    1e-4
  #
      radial_base         24 7.0
      radial_multiplier   2
      angular_grids       specified
        division   0.1930   50
        division   0.3175  110
        division   0.4293  194
        division   0.5066  302
        division   0.5626  434
  #      division   0.5922  590
  #      division   0.6227  974
  #      division   0.6868 1202
  #      outer_grid  770
        outer_grid  434
  ################################################################################
  #
  #  Definition of "minimal" basis
  #
  ################################################################################
  #     valence basis states
      valence      1  s   1.
  #     ion occupancy
      ion_occ      1  s   0.5
  ################################################################################
  #
  #  Suggested additional basis functions. For production calculations,
  #  uncomment them one after another (the most important basis functions are
  #  listed first).
  #
  #  Basis constructed for dimers: 0.5 A, 0.7 A, 1.0 A, 1.5 A, 2.5 A
  #
  ################################################################################
  #  "First tier" - improvements: -1014.90 meV to -62.69 meV
       hydro 2 s 2.1
       hydro 2 p 3.5
  #  "Second tier" - improvements: -12.89 meV to -1.83 meV
       hydro 1 s 0.85
       hydro 2 p 3.7
       hydro 2 s 1.2
       hydro 3 d 7
  #  "Third tier" - improvements: -0.25 meV to -0.12 meV
  #     hydro 4 f 11.2
  #     hydro 3 p 4.8
  #     hydro 4 d 9
  #     hydro 3 s 3.2
  ################################################################################
  #
  # For methods that use the localized form of the "resolution of identity" for
  # the two-electron Coulomb operator (RI_method LVL), particularly Hartree-Fock and
  # hybrid density functional calculations, the highest accuracy can be obtained by
  # uncommenting the line beginning with "for_aux"  below, thus adding an extra g radial
  # function to the construction of the product basis set for the expansion.
  # See Ref. New J. Phys. 17, 093020 (2015) for more information, particularly Figs. 1 and 6.
  #
  ################################################################################
  #
  # for_aux hydro 5 g 6.0
  ################################################################################
  #
  #  FHI-aims code project
  # Volker Blum, Fritz Haber Institute Berlin, 2009
  #
  #  Suggested "tight" defaults for C atom (to be pasted into control.in file)
  #
  ################################################################################
    species        C
  #     global species definitions
      nucleus             6
      mass                12.0107
  #
      l_hartree           6
  #
      cut_pot             4.0  2.0  1.0
      basis_dep_cutoff    1e-4
  #
      radial_base         34 7.0
      radial_multiplier   2
      angular_grids specified
        division   0.2187   50
        division   0.4416  110
        division   0.6335  194
        division   0.7727  302
        division   0.8772  434
  #      division   0.9334  590
  #      division   0.9924  770
  #      division   1.0230  974
  #      division   1.5020 1202
  #     outer_grid  974
        outer_grid  434
  ################################################################################
  #
  #  Definition of "minimal" basis
  #
  ################################################################################
  #     valence basis states
      valence      2  s   2.
      valence      2  p   2.
  #     ion occupancy
      ion_occ      2  s   1.
      ion_occ      2  p   1.
  ################################################################################
  #
  #  Suggested additional basis functions. For production calculations,
  #  uncomment them one after another (the most important basis functions are
  #  listed first).
  #
  #  Constructed for dimers: 1.0 A, 1.25 A, 1.5 A, 2.0 A, 3.0 A
  #
  ################################################################################
  #  "First tier" - improvements: -1214.57 meV to -155.61 meV
       hydro 2 p 1.7
       hydro 3 d 6
       hydro 2 s 4.9
  #  "Second tier" - improvements: -67.75 meV to -5.23 meV
       hydro 4 f 9.8
       hydro 3 p 5.2
       hydro 3 s 4.3
       hydro 5 g 14.4
       hydro 3 d 6.2
  #  "Third tier" - improvements: -2.43 meV to -0.60 meV
  #     hydro 2 p 5.6
  #     hydro 2 s 1.4
  #     hydro 3 d 4.9
  #     hydro 4 f 11.2
  #  "Fourth tier" - improvements: -0.39 meV to -0.18 meV
  #     hydro 2 p 2.1
  #     hydro 5 g 16.4
  #     hydro 4 d 13.2
  #     hydro 3 s 13.6
  #     hydro 4 f 17.6
  #  Further basis functions - improvements: -0.08 meV and below
  #     hydro 3 s 2
  #     hydro 3 p 6
  #     hydro 4 d 20
  ################################################################################
  #
  # For methods that use the localized form of the "resolution of identity" for
  # the two-electron Coulomb operator (RI_method LVL), particularly Hartree-Fock and
  # hybrid density functional calculations, the highest accuracy can be obtained by
  # uncommenting the line beginning with "for_aux"  below, thus adding an extra g radial
  # function to the construction of the product basis set for the expansion.
  # See Ref. New J. Phys. 17, 093020 (2015) for more information, particularly Figs. 1 and 6.
  #
  ################################################################################
  #
  # for_aux hydro 5 g 6.0
  
  -----------------------------------------------------------------------
  Completed first pass over input file control.in .
  -----------------------------------------------------------------------
  
  
  -----------------------------------------------------------------------
  Parsing geometry.in (first pass over file, find array dimensions only).
  The contents of geometry.in will be repeated verbatim below
  unless switched off by setting 'verbatim_writeout .false.' .
  in the first line of geometry.in .
  -----------------------------------------------------------------------
  
  #=======================================================
  # FHI-aims file: geometry.in
  # Created using the Atomic Simulation Environment (ASE)
  # Sun Jun 20 15:47:01 2021
  #=======================================================
  atom 12.5898800000000008 51.8440859999999972 56.8681800000000024 H
  atom 13.3996499999999994 51.2385829999999984 57.2616039999999984 C
  atom 14.1362100000000002 50.4393460000000005 56.4171040000000019 C
  atom 13.6649700000000003 51.2556340000000006 58.6646000000000001 C
  atom 13.9250430000000005 50.4685449999999989 55.3480800000000031 H
  atom 15.1108650000000004 49.6145330000000016 56.9102919999999983 C
  atom 12.9373199999999997 52.1635679999999979 59.5563920000000024 C
  atom 14.5574549999999991 50.2965489999999988 59.1690479999999965 C
  atom 15.7160030000000006 49.0077520000000035 56.2358180000000019 H
  atom 15.3029250000000001 49.5292809999999974 58.2614919999999969 C
  atom 12.8343600000000002 51.7948530000000034 60.9391200000000026 C
  atom 12.3641100000000002 53.3677520000000030 59.1262600000000020 C
  atom 14.6193299999999997 50.0727619999999973 60.6215880000000027 C
  atom 16.0340400000000010 48.8204100000000025 58.6425300000000007 H
  atom 11.9651399999999999 52.5067069999999987 61.7746119999999976 C
  atom 13.6704150000000002 50.7526470000000032 61.4638360000000006 C
  atom 11.4567750000000004 54.0455049999999986 59.9617519999999971 C
  atom 12.7427849999999996 54.0135360000000020 57.8989199999999968 C
  atom 15.4440000000000008 49.1499090000000010 61.1823359999999994 C
  atom 11.8374299999999995 52.1038909999999973 63.1550879999999992 C
  atom 11.1954150000000006 53.5830130000000011 61.2769199999999969 C
  atom 13.6001250000000002 50.4691839999999985 62.8465640000000008 C
  atom 10.7613000000000003 55.2219830000000016 59.4933359999999993 C
  atom 12.1646249999999991 55.1452560000000034 57.4777959999999979 C
  atom 13.5825030000000009 53.6077360000000027 57.3429009999999977 H
  atom 15.4103399999999997 48.8366079999999982 62.5560559999999981 C
  atom 16.1760060000000010 48.6162319999999966 60.5765480000000025 H
  atom 10.7994149999999998 52.7667250000000010 63.9838239999999985 C
  atom 12.6423000000000005 51.1170990000000032 63.6415199999999999 C
  atom 10.2172950000000000 54.2543730000000011 62.0943960000000033 C
  atom 14.5143900000000006 49.4887859999999975 63.4028080000000003 C
  atom 9.7747650000000004 55.8464540000000014 60.2770319999999984 C
  atom 11.0959199999999996 55.7526769999999985 58.2051919999999967 C
  atom 12.5143430000000002 55.6384389999999982 56.5695639999999997 H
  atom 16.3394550000000010 47.8839169999999967 63.1100479999999990 C
  atom 10.5791400000000007 52.3894850000000005 65.3125040000000041 C
  atom 10.0212749999999993 53.8089310000000012 63.4410919999999976 C
  atom 12.5536460000000005 50.8229800000000012 64.6814940000000007 H
  atom 9.5005349999999993 55.3242850000000033 61.5831919999999968 C
  atom 14.5356749999999995 49.1605660000000029 64.8012999999999977 C
  atom 9.1327499999999997 56.9803059999999988 59.7230399999999975 C
  atom 10.4128200000000000 56.8694780000000009 57.7300200000000032 C
  atom 17.0492360000000005 47.4088500000000010 62.4351240000000018 H
  atom 16.3473749999999995 47.6047170000000008 64.4409799999999962 C
  atom 9.6099300000000003 52.9862490000000008 66.0894440000000003 C
  atom 11.1770010000000006 51.5928049999999985 65.7487160000000017 H
  atom 9.0476100000000006 54.4355329999999995 64.2495600000000024 C
  atom 8.4813299999999998 55.9061299999999974 62.4276920000000004 C
  atom 13.8464369999999999 49.6503390000000024 65.4845569999999952 H
  atom 15.4266749999999995 48.2526319999999984 65.2787239999999969 C
  atom 8.3560459999999992 57.4898990000000012 60.2903189999999967 H
  atom 9.4584600000000005 57.4683729999999997 58.4889439999999965 C
  atom 10.6844269999999995 57.2669649999999990 56.7508499999999998 H
  atom 17.0699760000000005 46.8979780000000019 64.8474659999999972 H
  atom 9.4470259999999993 52.6495040000000003 67.1125279999999975 H
  atom 8.8466400000000007 53.9836979999999969 65.5692319999999995 C
  atom 8.2526399999999995 55.4926579999999987 63.6730480000000014 C
  atom 7.8590159999999996 56.7017450000000025 62.0218819999999980 H
  atom 15.4410299999999996 48.0256490000000014 66.3468479999999943 H
  atom 8.9250480000000003 58.3411410000000004 58.1117339999999984 H
  atom 8.0676590000000008 54.4594039999999993 66.1642099999999971 H
  atom 7.4641549999999999 55.9440669999999969 64.2741070000000008 H
  
  -----------------------------------------------------------------------
  Completed first pass over input file geometry.in .
  -----------------------------------------------------------------------
  

  Basic array size parameters:
  | Number of species                 :        2
  | Number of atoms                   :       62
  | Max. basis fn. angular momentum   :        4
  | Max. atomic/ionic basis occupied n:        2
  | Max. number of basis fn. types    :        2
  | Max. radial fns per species/type  :        8
  | Max. logarithmic grid size        :     1277
  | Max. radial integration grid size :       69
  | Max. angular integration grid size:      434
  | Max. angular grid division number :        8
  | Radial grid for Hartree potential :     1277
  | Number of spin channels           :        1

------------------------------------------------------------
          Reading file control.in.
------------------------------------------------------------
  XC: Using PBE gradient-corrected functionals.
  Scalar relativistic treatment of kinetic energy: ZORA.
  Threshold value for ZORA:   0.100000E-11
  Occupation type: Gaussian broadening, width =   0.100000E-03 eV.
  Since 'load_balancing .true.' is present in control.in, automatically turning on 'use_local_index .true.'.
  Using load balancing for integrations.
  Kohn-Sham electronic structure solved by the ELSI library.
  Using pulay charge density mixing.
  Pulay mixing - number of memorized iterations:    5
  Charge density mixing - mixing parameter:     0.4000
  Convergence accuracy of total energy:  0.1000E-05
  Convergence accuracy of sum of eigenvalues:  0.1000E-03
  Convergence accuracy of self-consistent charge density:  0.1000E-05
  Maximum number of s.-c. iterations  :   100
  * Ignoring prodbas_threshold
  Threshold for basis singularities:  0.1000E-04
  override_illconditioning: Explicitly overriding any built-in checks for an ill-conditioned overlap matrix.
  *** WARNING: If you use this flag, you should really know what you are doing.
  *** DO NOT keep this flag set by default in all your control.in files.
  Using 1D integrations for auxiliary 2-center integrals.
  Spin treatment: No spin polarisation.
  Charge =   0.000000E+00: Neutral system requested explicitly.
 
  Reading configuration options for species H                   .
  | Found nuclear charge :   1.0000
  | Found atomic mass :    1.00794000000000      amu
  | Found l_max for Hartree potential  :   6
  | Found cutoff potl. onset [A], width [A], scale factor :    4.00000    2.00000    1.00000
  | Threshold for basis-dependent cutoff potential is   0.100000E-03
  | Found data for basic radial integration grid :    24 points, outermost radius =    7.000 A
  | Found multiplier for basic radial grid :   2
  | Found angular grid specification: user-specified.
  | Specified grid contains     6 separate shells.
  | Check grid settings after all constraints further below.
  | Found free-atom valence shell :  1 s   1.000
  | No ionic wave fns used. Skipping ion_occ.
  | Found hydrogenic basis function :  2 s   2.100
  | Found hydrogenic basis function :  2 p   3.500
  | Found hydrogenic basis function :  1 s   0.850
  | Found hydrogenic basis function :  2 p   3.700
  | Found hydrogenic basis function :  2 s   1.200
  | Found hydrogenic basis function :  3 d   7.000
  Species H                   : Missing cutoff potential type.
  Defaulting to exp(1/x)/(1-x)^2 type cutoff potential.
  Species H : No 'logarithmic' tag. Using default grid for free atom:
  | Default logarithmic grid data [bohr] : 0.1000E-03 0.1000E+03 0.1012E+01
  Species H : On-site basis accuracy parameter (for Gram-Schmidt orthonormalisation) not specified.
  Using default value basis_acc =  0.1000000E-03.
  Species H                   : Using default innermost maximum threshold i_radial=  2 for radial functions.
  Species H                   : Default cutoff onset for free atom density etc. : 0.40000000E+01 AA.
  Species H                   : Basic radial grid will be enhanced according to radial_multiplier =   2, to contain    49 grid points.
 
  Reading configuration options for species C                   .
  | Found nuclear charge :   6.0000
  | Found atomic mass :    12.0107000000000      amu
  | Found l_max for Hartree potential  :   6
  | Found cutoff potl. onset [A], width [A], scale factor :    4.00000    2.00000    1.00000
  | Threshold for basis-dependent cutoff potential is   0.100000E-03
  | Found data for basic radial integration grid :    34 points, outermost radius =    7.000 A
  | Found multiplier for basic radial grid :   2
  | Found angular grid specification: user-specified.
  | Specified grid contains     6 separate shells.
  | Check grid settings after all constraints further below.
  | Found free-atom valence shell :  2 s   2.000
  | Found free-atom valence shell :  2 p   2.000
  | No ionic wave fns used. Skipping ion_occ.
  | No ionic wave fns used. Skipping ion_occ.
  | Found hydrogenic basis function :  2 p   1.700
  | Found hydrogenic basis function :  3 d   6.000
  | Found hydrogenic basis function :  2 s   4.900
  | Found hydrogenic basis function :  4 f   9.800
  | Found hydrogenic basis function :  3 p   5.200
  | Found hydrogenic basis function :  3 s   4.300
  | Found hydrogenic basis function :  5 g  14.400
  | Found hydrogenic basis function :  3 d   6.200
  Species C                   : Missing cutoff potential type.
  Defaulting to exp(1/x)/(1-x)^2 type cutoff potential.
  Species C : No 'logarithmic' tag. Using default grid for free atom:
  | Default logarithmic grid data [bohr] : 0.1000E-03 0.1000E+03 0.1012E+01
  Species C : On-site basis accuracy parameter (for Gram-Schmidt orthonormalisation) not specified.
  Using default value basis_acc =  0.1000000E-03.
  Species C                   : Using default innermost maximum threshold i_radial=  2 for radial functions.
  Species C                   : Default cutoff onset for free atom density etc. : 0.40000000E+01 AA.
  Species C                   : Basic radial grid will be enhanced according to radial_multiplier =   2, to contain    69 grid points.
 
  Finished reading input file 'control.in'. Consistency checks are next.
 
  MPI_IN_PLACE appears to work with this MPI implementation.
  | Keeping use_mpi_in_place .true. (see manual).
  Target number of points in a grid batch is not set. Defaulting to  100
  Method for grid partitioning is not set. Defaulting to parallel hash+maxmin partitioning.
  Batch size limit is not set. Defaulting to    200
  By default, will store active basis functions for each batch.
  If in need of memory, prune_basis_once .false. can be used to disable this option.
  communication_type for Hartree potential was not specified.
  Defaulting to calc_hartree .
  Pulay mixer: Number of initial linear mixing iterations not set.
  Defaulting to    0 iterations.
  Work space size for distributed Hartree potential not set.
  Defaulting to   0.200000E+03 MB.
  Algorithm-dependent basis array size parameters:
  | n_max_pulay                         :        5
  Presetting      1001 iterations before the initial mixing cycle
  is restarted anyway using the sc_init_iter criterion / keyword.
  Presetting a factor      1.000 between actual scf density residual
  and density convergence criterion sc_accuracy_rho below which sc_init_iter
  takes no effect.
  Calculation of forces was not defined in control.in. No forces will be calculated.
  Geometry relaxation not requested: no relaxation will be performed.
  No accuracy limit for integral partition fn. given. Defaulting to  0.1000E-14.
  No threshold value for u(r) in integrations given. Defaulting to  0.1000E-05.
  No accuracy for occupation numbers given. Defaulting to  0.1000E-12.
  No threshold value for occupation numbers given. Defaulting to  0.0000E+00.
  No accuracy for fermi level given. Defaulting to  0.1000E-19.
  Maximum # of iterations to find E_F not set. Defaulting to  200.
  Will not use alltoall communication since running on < 1024 CPUs.
  partition_type (choice of integration weights) for integrals was not specified.
  | Using a version of the partition function of Stratmann and coworkers ('stratmann_sparse').
  | At each grid point, the set of atoms used to build the partition table is smoothly restricted to
  | only those atoms whose free-atom density would be non-zero at that grid point.
  Partitioning for Hartree potential was not defined. Using partition_type for integrals.
  | Adjusted default value of keyword multip_moments_threshold to:       0.10000000E-11
  | This value may affect high angular momentum components of the Hartree potential in periodic systems.
  No q(lm)/r^(l+1) cutoff set for long-range Hartree potential.
  | Using default value of  0.100000E-09 .
  | Verify using the multipole_threshold keyword.
  Defaulting to new monopole extrapolation.
  Density update method: automatic selection selected.
 * Warning: use_local_index and/or load_balancing needs packed_matrix_format = index
 * Changing the default setting to packed_matrix_format = index
------------------------------------------------------------


------------------------------------------------------------
          Reading geometry description geometry.in.
------------------------------------------------------------
  Input structure read successfully.
  The structure contains       62 atoms,  and a total of        272.000 electrons.

  Input geometry:
  | No unit cell requested.
  | Atomic structure:
  |       Atom                x [A]            y [A]            z [A]
  |    1: Species H            12.58988000       51.84408600       56.86818000
  |    2: Species C            13.39965000       51.23858300       57.26160400
  |    3: Species C            14.13621000       50.43934600       56.41710400
  |    4: Species C            13.66497000       51.25563400       58.66460000
  |    5: Species H            13.92504300       50.46854500       55.34808000
  |    6: Species C            15.11086500       49.61453300       56.91029200
  |    7: Species C            12.93732000       52.16356800       59.55639200
  |    8: Species C            14.55745500       50.29654900       59.16904800
  |    9: Species H            15.71600300       49.00775200       56.23581800
  |   10: Species C            15.30292500       49.52928100       58.26149200
  |   11: Species C            12.83436000       51.79485300       60.93912000
  |   12: Species C            12.36411000       53.36775200       59.12626000
  |   13: Species C            14.61933000       50.07276200       60.62158800
  |   14: Species H            16.03404000       48.82041000       58.64253000
  |   15: Species C            11.96514000       52.50670700       61.77461200
  |   16: Species C            13.67041500       50.75264700       61.46383600
  |   17: Species C            11.45677500       54.04550500       59.96175200
  |   18: Species C            12.74278500       54.01353600       57.89892000
  |   19: Species C            15.44400000       49.14990900       61.18233600
  |   20: Species C            11.83743000       52.10389100       63.15508800
  |   21: Species C            11.19541500       53.58301300       61.27692000
  |   22: Species C            13.60012500       50.46918400       62.84656400
  |   23: Species C            10.76130000       55.22198300       59.49333600
  |   24: Species C            12.16462500       55.14525600       57.47779600
  |   25: Species H            13.58250300       53.60773600       57.34290100
  |   26: Species C            15.41034000       48.83660800       62.55605600
  |   27: Species H            16.17600600       48.61623200       60.57654800
  |   28: Species C            10.79941500       52.76672500       63.98382400
  |   29: Species C            12.64230000       51.11709900       63.64152000
  |   30: Species C            10.21729500       54.25437300       62.09439600
  |   31: Species C            14.51439000       49.48878600       63.40280800
  |   32: Species C             9.77476500       55.84645400       60.27703200
  |   33: Species C            11.09592000       55.75267700       58.20519200
  |   34: Species H            12.51434300       55.63843900       56.56956400
  |   35: Species C            16.33945500       47.88391700       63.11004800
  |   36: Species C            10.57914000       52.38948500       65.31250400
  |   37: Species C            10.02127500       53.80893100       63.44109200
  |   38: Species H            12.55364600       50.82298000       64.68149400
  |   39: Species C             9.50053500       55.32428500       61.58319200
  |   40: Species C            14.53567500       49.16056600       64.80130000
  |   41: Species C             9.13275000       56.98030600       59.72304000
  |   42: Species C            10.41282000       56.86947800       57.73002000
  |   43: Species H            17.04923600       47.40885000       62.43512400
  |   44: Species C            16.34737500       47.60471700       64.44098000
  |   45: Species C             9.60993000       52.98624900       66.08944400
  |   46: Species H            11.17700100       51.59280500       65.74871600
  |   47: Species C             9.04761000       54.43553300       64.24956000
  |   48: Species C             8.48133000       55.90613000       62.42769200
  |   49: Species H            13.84643700       49.65033900       65.48455700
  |   50: Species C            15.42667500       48.25263200       65.27872400
  |   51: Species H             8.35604600       57.48989900       60.29031900
  |   52: Species C             9.45846000       57.46837300       58.48894400
  |   53: Species H            10.68442700       57.26696500       56.75085000
  |   54: Species H            17.06997600       46.89797800       64.84746600
  |   55: Species H             9.44702600       52.64950400       67.11252800
  |   56: Species C             8.84664000       53.98369800       65.56923200
  |   57: Species C             8.25264000       55.49265800       63.67304800
  |   58: Species H             7.85901600       56.70174500       62.02188200
  |   59: Species H            15.44103000       48.02564900       66.34684800
  |   60: Species H             8.92504800       58.34114100       58.11173400
  |   61: Species H             8.06765900       54.45940400       66.16421000
  |   62: Species H             7.46415500       55.94406700       64.27410700
  |

  | The smallest distance between any two atoms is         1.08439450 AA.
  |
  | The first atom of this pair is atom number                     29 .
  | The second atom of this pair is atom number                    38 .

  Number of empty states per atom not set in control.in - providing a guess from actual geometry.
  | Total number of empty states used during s.c.f. cycle:      156
  If you use a very high smearing, use empty_states (per atom!) in control.in to increase this value.

  Structure-dependent array size parameters: 
  | Maximum number of distinct radial functions  :       18
  | Maximum number of basis functions            :     1938
  | Number of Kohn-Sham states (occupied + empty):      292
------------------------------------------------------------

------------------------------------------------------------
          Preparing all fixed parts of the calculation.
------------------------------------------------------------
  Determining machine precision:
    2.225073858507201E-308
  Setting up grids for atomic and cluster calculations.

  Creating wave function, potential, and density for free atoms.

  Species: H

  List of occupied orbitals and eigenvalues:
    n    l              occ      energy [Ha]    energy [eV]
    1    0           1.0000        -0.238386        -6.4868


  Species: C

  List of occupied orbitals and eigenvalues:
    n    l              occ      energy [Ha]    energy [eV]
    1    0           2.0000       -10.049212      -273.4530
    2    0           2.0000        -0.504761       -13.7352
    2    1           2.0000        -0.193631        -5.2690

  Creating fixed part of basis set: Ionic, confined, hydrogenic.
 
  H                    hydrogenic:
 
  List of hydrogenic basis orbitals: 
    n    l      effective z      eigenvalue [eV]  inner max. [A]     outer max. [A]     outer radius [A]   
    2    0         2.100000       -14.9965           0.193243           1.317208           5.373006
    2    1         3.500000       -41.6672           0.602369           0.602369           4.056063
    1    0         0.850000        -9.8292           0.624871           0.624871           5.373006
    2    1         3.700000       -46.5653           0.573622           0.573622           3.910002
    2    0         1.200000        -4.5995           0.334980           2.228188           5.505995
    3    2         7.000000       -74.0753           0.680699           0.680699           3.769201
 
 
  C                    hydrogenic:
 
  List of hydrogenic basis orbitals: 
    n    l      effective z      eigenvalue [eV]  inner max. [A]     outer max. [A]     outer radius [A]   
    2    1         1.700000        -9.8152           1.245706           1.245706           5.401630
    3    2         6.000000       -54.4226           0.792453           0.792453           4.178599
    2    0         4.900000       -81.6681           0.082559           0.562749           3.353238
    4    3         9.800000       -81.6681           0.863254           0.863254           4.028125
    3    1         5.200000       -40.8774           0.305389           1.215618           4.898362
    3    0         4.300000       -27.9508           0.091041           1.610311           5.401630
    5    4        14.400000      -112.8510           0.917666           0.917666           3.883070
    3    2         6.200000       -58.1113           0.763917           0.763917           4.077671
 

  Adding cutoff potential to free-atom effective potential.
  Creating atomic-like basis functions for current effective potential.

  Species H                   :

  List of atomic basis orbitals and eigenvalues:
    n    l      energy [Ha]    energy [eV]    outer radius [A]
    1    0        -0.238386        -6.4868       5.373006


  Species C                   :

  List of atomic basis orbitals and eigenvalues:
    n    l      energy [Ha]    energy [eV]    outer radius [A]
    1    0       -10.049212      -273.4530       1.934409
    2    0        -0.504761       -13.7352       5.271162
    2    1        -0.193631        -5.2690       5.401630

  Assembling full basis from fixed parts.
  | Species H :   atomic orbital   1 s accepted.
  | Species H :    hydro orbital   2 s accepted.
  | Species H :    hydro orbital   1 s accepted.
  | Species H :    hydro orbital   2 s accepted.
  | Species H :    hydro orbital   2 p accepted.
  | Species H :    hydro orbital   2 p accepted.
  | Species H :    hydro orbital   3 d accepted.
  | Species C :   atomic orbital   1 s accepted.
  | Species C :    hydro orbital   2 s accepted.
  | Species C :   atomic orbital   2 s accepted.
  | Species C :    hydro orbital   3 s accepted.
  | Species C :    hydro orbital   3 p accepted.
  | Species C :   atomic orbital   2 p accepted.
  | Species C :    hydro orbital   2 p accepted.
  | Species C :    hydro orbital   3 d accepted.
  | Species C :    hydro orbital   3 d accepted.
  | Species C :    hydro orbital   4 f accepted.
  | Species C :    hydro orbital   5 g accepted.
 
  Basis size parameters after reduction:
  | Total number of radial functions:       18
  | Total number of basis functions :     1938
 
  Per-task memory consumption for arrays in subroutine allocate_ext:
  |           4.458176MB.
  Testing on-site integration grid accuracy.
  |  Species  Function  <phi|h_atom|phi> (log., in eV)  <phi|h_atom|phi> (rad., in eV)
           1        1                 -6.4870767962                 -6.4871688290
           1        2                 13.5032046589                 13.5028982997
           1        3                 32.8195184817                 32.8119941656
           1        4                 33.8513856511                 33.7670005767 ***
           1        5                 28.8544614965                 28.8544615203
           1        6                 59.6326952547                 59.6327656460
           1        7                 60.2719308513                 60.2719305949
           2        8               -273.4529726040               -273.4529710464
           2        9                -10.7721037319                -10.7721022101
           2       10                 17.6044132601                 17.6044162063
           2       11                 53.7706460658                 53.7706913770
           2       12                 15.0973290362                 15.0973256030
           2       13                  3.8545134692                  3.8545724687
           2       14                 12.1156992592                 12.1182024431
           2       15                 29.4352039302                 29.4352041816
           2       16                 54.8741144708                 54.8740268729
           2       17                 59.3556032049                 59.3556031382
           2       18                 93.4551837154                 93.4551838009
 * Note: Onsite integrals marked "***" above are less accurate than
 * onsite_accuracy_threshold =    0.03000 eV. Usually, this is harmless.
 * When in doubt, tighten the "radial" and/or "radial_multiplier" flags to check.

  Preparing densities etc. for the partition functions (integrals / Hartree potential).

  Preparations completed.
  max(cpu_time)          :      0.189 s.
  Wall clock time (cpu1) :      0.175 s.
------------------------------------------------------------

------------------------------------------------------------
          Begin self-consistency loop: Initialization.

          Date     :  20210620, Time     :  165238.800
------------------------------------------------------------

  Initializing index lists of integration centers etc. from given atomic structure:
  | Number of centers in hartree potential         :        62
  | Number of centers in hartree multipole         :        62
  | Number of centers in electron density summation:        62
  | Number of centers in basis integrals           :        62
  | Number of centers in integrals                 :        62
  | Number of centers in hamiltonian               :        62
  * Using 56 tasks for Scalapack Eigenvalue solver.
  Detailed listing of tasks and assigned k-points:
  (for non-periodic systems, the "k-point" denotes an internal label only)
   Task     0 k-point     1 on d021
   Task     1 k-point     1 on d021
   Task     2 k-point     1 on d021
   Task     3 k-point     1 on d021
   Task     4 k-point     1 on d021
   Task     5 k-point     1 on d021
   Task     6 k-point     1 on d021
   Task     7 k-point     1 on d021
   Task     8 k-point     1 on d021
   Task     9 k-point     1 on d021
   Task    10 k-point     1 on d021
   Task    11 k-point     1 on d021
   Task    12 k-point     1 on d021
   Task    13 k-point     1 on d021
   Task    14 k-point     1 on d021
   Task    15 k-point     1 on d021
   Task    16 k-point     1 on d021
   Task    17 k-point     1 on d021
   Task    18 k-point     1 on d021
   Task    19 k-point     1 on d021
   Task    20 k-point     1 on d021
   Task    21 k-point     1 on d021
   Task    22 k-point     1 on d021
   Task    23 k-point     1 on d021
   Task    24 k-point     1 on d021
   Task    25 k-point     1 on d021
   Task    26 k-point     1 on d021
   Task    27 k-point     1 on d021
   Task    28 k-point     1 on d021
   Task    29 k-point     1 on d021
   Task    30 k-point     1 on d021
   Task    31 k-point     1 on d021
   Task    32 k-point     1 on d021
   Task    33 k-point     1 on d021
   Task    34 k-point     1 on d021
   Task    35 k-point     1 on d021
   Task    36 k-point     1 on d021
   Task    37 k-point     1 on d021
   Task    38 k-point     1 on d021
   Task    39 k-point     1 on d021
   Task    40 k-point     1 on d021
   Task    41 k-point     1 on d021
   Task    42 k-point     1 on d021
   Task    43 k-point     1 on d021
   Task    44 k-point     1 on d021
   Task    45 k-point     1 on d021
   Task    46 k-point     1 on d021
   Task    47 k-point     1 on d021
   Task    48 k-point     1 on d021
   Task    49 k-point     1 on d021
   Task    50 k-point     1 on d021
   Task    51 k-point     1 on d021
   Task    52 k-point     1 on d021
   Task    53 k-point     1 on d021
   Task    54 k-point     1 on d021
   Task    55 k-point     1 on d021
  Tasks:    56 split into      8 X      7 BLACS grid
  Calculating block size based on n_basis =         1938 max_nprow =            8 max_npcol =            7
  ScaLAPACK block size set to:           16
  Allocating        0.590 MB for ovlp
  Allocating        0.590 MB for ham
  Allocating        0.590 MB for eigenvec
  Required Scalapack workspace - INTEGER:            1 REAL:             1
  Partitioning the integration grid into batches with parallel hashing+maxmin method.
  | Number of batches:     9841
  | Maximal batch size:     200
  | Minimal batch size:       5
  | Average batch size:     106.521
  | Standard deviation of batch sizes:      29.716

  Integration load balanced across     56 MPI tasks.
  Work distribution over tasks is as follows:
  Task      0 has      18807 integration points.
  Task      1 has      18763 integration points.
  Task      2 has      18714 integration points.
  Task      3 has      18855 integration points.
  Task      4 has      18606 integration points.
  Task      5 has      18687 integration points.
  Task      6 has      18656 integration points.
  Task      7 has      18804 integration points.
  Task      8 has      18739 integration points.
  Task      9 has      18625 integration points.
  Task     10 has      18789 integration points.
  Task     11 has      18715 integration points.
  Task     12 has      18748 integration points.
  Task     13 has      18607 integration points.
  Task     14 has      18862 integration points.
  Task     15 has      18799 integration points.
  Task     16 has      18616 integration points.
  Task     17 has      18812 integration points.
  Task     18 has      18635 integration points.
  Task     19 has      18710 integration points.
  Task     20 has      18660 integration points.
  Task     21 has      18791 integration points.
  Task     22 has      18723 integration points.
  Task     23 has      18711 integration points.
  Task     24 has      18758 integration points.
  Task     25 has      18678 integration points.
  Task     26 has      18765 integration points.
  Task     27 has      18583 integration points.
  Task     28 has      18753 integration points.
  Task     29 has      18754 integration points.
  Task     30 has      18719 integration points.
  Task     31 has      18961 integration points.
  Task     32 has      18602 integration points.
  Task     33 has      18863 integration points.
  Task     34 has      18523 integration points.
  Task     35 has      18775 integration points.
  Task     36 has      18841 integration points.
  Task     37 has      18557 integration points.
  Task     38 has      18705 integration points.
  Task     39 has      18656 integration points.
  Task     40 has      18759 integration points.
  Task     41 has      18587 integration points.
  Task     42 has      18773 integration points.
  Task     43 has      18854 integration points.
  Task     44 has      18576 integration points.
  Task     45 has      18772 integration points.
  Task     46 has      18670 integration points.
  Task     47 has      18770 integration points.
  Task     48 has      18656 integration points.
  Task     49 has      18773 integration points.
  Task     50 has      18709 integration points.
  Task     51 has      18660 integration points.
  Task     52 has      18816 integration points.
  Task     53 has      18663 integration points.
  Task     54 has      18691 integration points.
  Task     55 has      18620 integration points.
  Initializing partition tables, free-atom densities, potentials, etc. across the integration grid (initialize_grid_storage).
  | initialize_grid_storage: Actual outermost partition radius vs. multipole_radius_free
  | (-- VB: in principle, multipole_radius_free should be larger, hence this output)
  | Species        1: Confinement radius =              6.000000000000000 AA, multipole_radius_free =              6.071692442739658 AA.
  | Species        1: outer_partition_radius set to              6.071692442739658 AA .
  | Species        2: Confinement radius =              6.000000000000000 AA, multipole_radius_free =              6.029870734432609 AA.
  | Species        2: outer_partition_radius set to              6.029870734432609 AA .
  | The sparse table of interatomic distances needs     45.6120 kbyte instead of    30.7520 kbyte of memory.
  | Using the partition_type stratmann_smoother will reduce your memory usage.
  | Net number of integration points:  1048276
  | of which are non-zero points    :   836343
  Renormalizing the initial density to the exact electron count on the 3D integration grid.
  | Initial density: Formal number of electrons (from input files) :     272.0000000000
  | Integrated number of electrons on 3D grid     :     271.9992250034
  | Charge integration error                      :      -0.0007749966
  | Normalization factor for density and gradient :       1.0000028493
  Obtaining max. number of non-zero basis functions in each batch (get_n_compute_maxes).
  | Maximal number of non-zero basis functions:     1075
  Selecting the method for density update.
  Loop over occupied states selected for charge density update.
  Hamiltonian matrix size:
  | Size of matrix non-packed:               1878891
  | Size of matrix packed:         1528404
  Allocating        4.527 MB for KS_eigenvector
  use_local_index: Max. local matrix size =      1248067
  Task:     0 matrix size:     298036
  Task:     1 matrix size:     463664
  Task:     2 matrix size:     376628
  Task:     3 matrix size:    1204943
  Task:     4 matrix size:    1073570
  Task:     5 matrix size:     716600
  Task:     6 matrix size:     896023
  Task:     7 matrix size:     187325
  Task:     8 matrix size:     352697
  Task:     9 matrix size:     256825
  Task:    10 matrix size:     482986
  Task:    11 matrix size:     347586
  Task:    12 matrix size:     746738
  Task:    13 matrix size:     683589
  Task:    14 matrix size:     917089
  Task:    15 matrix size:     458578
  Task:    16 matrix size:     412424
  Task:    17 matrix size:     677228
  Task:    18 matrix size:     363481
  Task:    19 matrix size:     895028
  Task:    20 matrix size:     583416
  Task:    21 matrix size:     236683
  Task:    22 matrix size:     157080
  Task:    23 matrix size:     100576
  Task:    24 matrix size:     658448
  Task:    25 matrix size:     461567
  Task:    26 matrix size:     362278
  Task:    27 matrix size:     255262
  Task:    28 matrix size:     490138
  Task:    29 matrix size:     644330
  Task:    30 matrix size:     876491
  Task:    31 matrix size:     151525
  Task:    32 matrix size:     236281
  Task:    33 matrix size:     371531
  Task:    34 matrix size:     253036
  Task:    35 matrix size:     488855
  Task:    36 matrix size:     371027
  Task:    37 matrix size:     341115
  Task:    38 matrix size:     973763
  Task:    39 matrix size:     902541
  Task:    40 matrix size:     898185
  Task:    41 matrix size:     555098
  Task:    42 matrix size:     719579
  Task:    43 matrix size:     464601
  Task:    44 matrix size:     321647
  Task:    45 matrix size:     337758
  Task:    46 matrix size:     169584
  Task:    47 matrix size:     305130
  Task:    48 matrix size:     202454
  Task:    49 matrix size:     846948
  Task:    50 matrix size:    1028717
  Task:    51 matrix size:    1248067
  Task:    52 matrix size:     526643
  Task:    53 matrix size:     547499
  Task:    54 matrix size:     696252
  Task:    55 matrix size:     892126
  Integrating Hamiltonian matrix: batch-based integration.
  Time summed over all CPUs for integration: real work      220.529 s, elapsed      429.696 s
  Time get_set_sparse_local_matrix_scalapack:     0.021819 s
  Start compute_balanced_batch_distribution
  Done load balancing, time needed:      0.011 s
  Integrating overlap matrix with loadbalancing
  Time summed over all CPUs for integration: real work       63.595 s, elapsed       74.393 s
  Time get_set_full_local_matrix_scalapack:     0.025884 s

  Updating Kohn-Sham eigenvalues and eigenvectors using ELSI and the ELPA eigensolver.
  Overlap matrix is not singular
  | Lowest and highest eigenvalues :  0.12E+02,  0.79E-04
  Finished singularity check of overlap matrix
  | Time :     0.143 s
  Finished Cholesky decomposition
  | Time :     0.031 s
  Finished transformation to standard eigenproblem
  | Time :     0.029 s
  Starting ELPA eigensolver
  Finished solving standard eigenproblem
  | Time :     0.156 s
  Finished back-transformation of eigenvectors
  | Time :     0.007 s

  Obtaining occupation numbers and chemical potential using ELSI.
  | Chemical potential (Fermi level):    -7.76537435 eV
  Writing Kohn-Sham eigenvalues.

  State    Occupation    Eigenvalue [Ha]    Eigenvalue [eV]
      1       2.00000         -10.179764         -277.00546
      2       2.00000         -10.177880         -276.95421
      3       2.00000         -10.177707         -276.94950
      4       2.00000         -10.176399         -276.91390
      5       2.00000         -10.175621         -276.89274
      6       2.00000         -10.174430         -276.86034
      7       2.00000         -10.174377         -276.85888
      8       2.00000         -10.173945         -276.84712
      9       2.00000         -10.173865         -276.84495
     10       2.00000         -10.173704         -276.84057
     11       2.00000         -10.173572         -276.83698
     12       2.00000         -10.173483         -276.83456
     13       2.00000         -10.173394         -276.83213
     14       2.00000         -10.173239         -276.82792
     15       2.00000         -10.173208         -276.82708
     16       2.00000         -10.172235         -276.80061
     17       2.00000         -10.171569         -276.78246
     18       2.00000         -10.170015         -276.74018
     19       2.00000         -10.169131         -276.71613
     20       2.00000         -10.169048         -276.71388
     21       2.00000         -10.168203         -276.69088
     22       2.00000         -10.167879         -276.68207
     23       2.00000         -10.167250         -276.66495
     24       2.00000         -10.167102         -276.66092
     25       2.00000         -10.166731         -276.65082
     26       2.00000         -10.166684         -276.64956
     27       2.00000         -10.166389         -276.64151
     28       2.00000         -10.166051         -276.63232
     29       2.00000         -10.165588         -276.61973
     30       2.00000         -10.165534         -276.61824
     31       2.00000         -10.165069         -276.60559
     32       2.00000         -10.165058         -276.60530
     33       2.00000         -10.164886         -276.60061
     34       2.00000         -10.164355         -276.58618
     35       2.00000         -10.164140         -276.58032
     36       2.00000         -10.163489         -276.56261
     37       2.00000         -10.163461         -276.56185
     38       2.00000         -10.163290         -276.55719
     39       2.00000         -10.162482         -276.53520
     40       2.00000         -10.162476         -276.53504
     41       2.00000         -10.161388         -276.50543
     42       2.00000         -10.160659         -276.48559
     43       2.00000          -1.031227          -28.06112
     44       2.00000          -1.016921          -27.67183
     45       2.00000          -1.009811          -27.47837
     46       2.00000          -1.000871          -27.23509
     47       2.00000          -0.993312          -27.02939
     48       2.00000          -0.975144          -26.53501
     49       2.00000          -0.973409          -26.48780
     50       2.00000          -0.959763          -26.11647
     51       2.00000          -0.941092          -25.60841
     52       2.00000          -0.938227          -25.53045
     53       2.00000          -0.920644          -25.05201
     54       2.00000          -0.908733          -24.72787
     55       2.00000          -0.902169          -24.54926
     56       2.00000          -0.896209          -24.38709
     57       2.00000          -0.886111          -24.11230
     58       2.00000          -0.878974          -23.91809
     59       2.00000          -0.873386          -23.76604
     60       2.00000          -0.867780          -23.61348
     61       2.00000          -0.863322          -23.49219
     62       2.00000          -0.860239          -23.40830
     63       2.00000          -0.837901          -22.80044
     64       2.00000          -0.792604          -21.56785
     65       2.00000          -0.788061          -21.44423
     66       2.00000          -0.785432          -21.37268
     67       2.00000          -0.783279          -21.31411
     68       2.00000          -0.778927          -21.19568
     69       2.00000          -0.768591          -20.91442
     70       2.00000          -0.751318          -20.44440
     71       2.00000          -0.749422          -20.39280
     72       2.00000          -0.743784          -20.23938
     73       2.00000          -0.733765          -19.96676
     74       2.00000          -0.722790          -19.66812
     75       2.00000          -0.704944          -19.18251
     76       2.00000          -0.695696          -18.93086
     77       2.00000          -0.691415          -18.81437
     78       2.00000          -0.684850          -18.63573
     79       2.00000          -0.670320          -18.24033
     80       2.00000          -0.665566          -18.11098
     81       2.00000          -0.661318          -17.99537
     82       2.00000          -0.648645          -17.65054
     83       2.00000          -0.645741          -17.57150
     84       2.00000          -0.640914          -17.44016
     85       2.00000          -0.640347          -17.42472
     86       2.00000          -0.630181          -17.14809
     87       2.00000          -0.624200          -16.98534
     88       2.00000          -0.614098          -16.71045
     89       2.00000          -0.613217          -16.68648
     90       2.00000          -0.609410          -16.58289
     91       2.00000          -0.600988          -16.35372
     92       2.00000          -0.597166          -16.24971
     93       2.00000          -0.593566          -16.15175
     94       2.00000          -0.588358          -16.01003
     95       2.00000          -0.583072          -15.86620
     96       2.00000          -0.580901          -15.80713
     97       2.00000          -0.575524          -15.66081
     98       2.00000          -0.573421          -15.60357
     99       2.00000          -0.569446          -15.49542
    100       2.00000          -0.564731          -15.36712
    101       2.00000          -0.562766          -15.31365
    102       2.00000          -0.561414          -15.27686
    103       2.00000          -0.552365          -15.03063
    104       2.00000          -0.547626          -14.90167
    105       2.00000          -0.536943          -14.61096
    106       2.00000          -0.534926          -14.55607
    107       2.00000          -0.533649          -14.52132
    108       2.00000          -0.528027          -14.36836
    109       2.00000          -0.524168          -14.26334
    110       2.00000          -0.522864          -14.22785
    111       2.00000          -0.514157          -13.99092
    112       2.00000          -0.512721          -13.95185
    113       2.00000          -0.510569          -13.89329
    114       2.00000          -0.506703          -13.78810
    115       2.00000          -0.504935          -13.73998
    116       2.00000          -0.500472          -13.61853
    117       2.00000          -0.497204          -13.52962
    118       2.00000          -0.490396          -13.34436
    119       2.00000          -0.484847          -13.19335
    120       2.00000          -0.484129          -13.17382
    121       2.00000          -0.479763          -13.05501
    122       2.00000          -0.474365          -12.90813
    123       2.00000          -0.469859          -12.78552
    124       2.00000          -0.448791          -12.21223
    125       2.00000          -0.446755          -12.15681
    126       2.00000          -0.433156          -11.78677
    127       2.00000          -0.420312          -11.43727
    128       2.00000          -0.414954          -11.29147
    129       2.00000          -0.411671          -11.20214
    130       2.00000          -0.400946          -10.91030
    131       2.00000          -0.397470          -10.81571
    132       2.00000          -0.387718          -10.55034
    133       2.00000          -0.378228          -10.29211
    134       2.00000          -0.371258          -10.10245
    135       2.00000          -0.370781          -10.08946
    136       2.00000          -0.336849           -9.16612
    137       0.00000          -0.276397           -7.52116
    138       0.00000          -0.243320           -6.62107
    139       0.00000          -0.241633           -6.57518
    140       0.00000          -0.236668           -6.44007
    141       0.00000          -0.227422           -6.18846
    142       0.00000          -0.218856           -5.95538
    143       0.00000          -0.211048           -5.74290
    144       0.00000          -0.197865           -5.38418
    145       0.00000          -0.193283           -5.25949
    146       0.00000          -0.184781           -5.02815
    147       0.00000          -0.171273           -4.66056
    148       0.00000          -0.155116           -4.22091
    149       0.00000          -0.148705           -4.04647
    150       0.00000          -0.121440           -3.30454
    151       0.00000          -0.100253           -2.72801
    152       0.00000          -0.097737           -2.65957
    153       0.00000          -0.078580           -2.13826
    154       0.00000          -0.073155           -1.99064
    155       0.00000          -0.071888           -1.95617
    156       0.00000          -0.067426           -1.83474
    157       0.00000          -0.062236           -1.69354
    158       0.00000          -0.059719           -1.62505
    159       0.00000          -0.053236           -1.44862
    160       0.00000          -0.049725           -1.35309
    161       0.00000          -0.046148           -1.25575
    162       0.00000          -0.043032           -1.17097
    163       0.00000          -0.034826           -0.94767
    164       0.00000          -0.030123           -0.81970
    165       0.00000          -0.026222           -0.71355
    166       0.00000          -0.023793           -0.64744
    167       0.00000          -0.022318           -0.60730
    168       0.00000          -0.019213           -0.52282
    169       0.00000          -0.016463           -0.44798
    170       0.00000          -0.014861           -0.40438
    171       0.00000          -0.013507           -0.36754
    172       0.00000          -0.010897           -0.29651
    173       0.00000          -0.006726           -0.18304
    174       0.00000          -0.003603           -0.09805
    175       0.00000          -0.000925           -0.02517
    176       0.00000          -0.000014           -0.00039
    177       0.00000           0.002440            0.06639
    178       0.00000           0.004157            0.11311
    179       0.00000           0.008031            0.21853
    180       0.00000           0.009561            0.26016
    181       0.00000           0.012634            0.34379
    182       0.00000           0.014608            0.39749
    183       0.00000           0.022491            0.61202
    184       0.00000           0.024838            0.67587
    185       0.00000           0.025140            0.68410
    186       0.00000           0.027511            0.74862
    187       0.00000           0.029197            0.79448
    188       0.00000           0.032468            0.88349
    189       0.00000           0.036577            0.99532
    190       0.00000           0.039192            1.06646
    191       0.00000           0.041415            1.12697
    192       0.00000           0.044031            1.19815
    193       0.00000           0.045884            1.24857
    194       0.00000           0.049736            1.35337
    195       0.00000           0.050594            1.37674
    196       0.00000           0.051199            1.39319
    197       0.00000           0.053101            1.44494
    198       0.00000           0.054741            1.48959
    199       0.00000           0.058256            1.58523
    200       0.00000           0.061844            1.68286
    201       0.00000           0.064994            1.76857
    202       0.00000           0.065464            1.78136
    203       0.00000           0.067043            1.82433
    204       0.00000           0.068559            1.86558
    205       0.00000           0.070579            1.92054
    206       0.00000           0.072415            1.97051
    207       0.00000           0.074775            2.03474
    208       0.00000           0.077203            2.10081
    209       0.00000           0.078706            2.14169
    210       0.00000           0.084014            2.28615
    211       0.00000           0.084490            2.29909
    212       0.00000           0.088203            2.40011
    213       0.00000           0.089296            2.42987
    214       0.00000           0.091798            2.49794
    215       0.00000           0.092858            2.52681
    216       0.00000           0.096596            2.62850
    217       0.00000           0.100595            2.73733
    218       0.00000           0.101543            2.76313
    219       0.00000           0.102690            2.79433
    220       0.00000           0.105807            2.87915
    221       0.00000           0.106333            2.89348
    222       0.00000           0.109815            2.98822
    223       0.00000           0.112738            3.06775
    224       0.00000           0.113322            3.08366
    225       0.00000           0.116702            3.17563
    226       0.00000           0.120310            3.27379
    227       0.00000           0.121998            3.31973
    228       0.00000           0.124221            3.38023
    229       0.00000           0.125544            3.41621
    230       0.00000           0.128499            3.49663
    231       0.00000           0.130949            3.56330
    232       0.00000           0.132035            3.59284
    233       0.00000           0.133672            3.63739
    234       0.00000           0.136885            3.72483
    235       0.00000           0.138511            3.76908
    236       0.00000           0.142696            3.88296
    237       0.00000           0.143108            3.89417
    238       0.00000           0.146135            3.97653
    239       0.00000           0.151206            4.11454
    240       0.00000           0.153741            4.18351
    241       0.00000           0.155480            4.23083
    242       0.00000           0.157723            4.29185
    243       0.00000           0.158967            4.32572
    244       0.00000           0.162928            4.43349
    245       0.00000           0.164949            4.48849
    246       0.00000           0.167892            4.56857
    247       0.00000           0.169083            4.60097
    248       0.00000           0.171252            4.66002
    249       0.00000           0.173854            4.73081
    250       0.00000           0.174953            4.76072
    251       0.00000           0.178770            4.86458
    252       0.00000           0.180302            4.90627
    253       0.00000           0.184717            5.02639
    254       0.00000           0.186983            5.08808
    255       0.00000           0.188747            5.13608
    256       0.00000           0.190885            5.19424
    257       0.00000           0.192092            5.22708
    258       0.00000           0.194480            5.29208
    259       0.00000           0.194927            5.30423
    260       0.00000           0.197289            5.36851
    261       0.00000           0.198868            5.41148
    262       0.00000           0.200551            5.45726
    263       0.00000           0.203255            5.53084
    264       0.00000           0.206742            5.62573
    265       0.00000           0.207520            5.64692
    266       0.00000           0.210630            5.73154
    267       0.00000           0.213930            5.82133
    268       0.00000           0.217172            5.90954
    269       0.00000           0.219071            5.96121
    270       0.00000           0.222780            6.06215
    271       0.00000           0.224653            6.11313
    272       0.00000           0.226600            6.16609
    273       0.00000           0.229335            6.24053
    274       0.00000           0.232248            6.31979
    275       0.00000           0.234179            6.37235
    276       0.00000           0.234760            6.38813
    277       0.00000           0.240160            6.53510
    278       0.00000           0.241235            6.56434
    279       0.00000           0.242615            6.60189
    280       0.00000           0.246580            6.70978
    281       0.00000           0.248268            6.75571
    282       0.00000           0.251627            6.84711
    283       0.00000           0.255954            6.96487
    284       0.00000           0.260016            7.07540
    285       0.00000           0.262122            7.13271
    286       0.00000           0.266048            7.23953
    287       0.00000           0.266243            7.24484
    288       0.00000           0.274346            7.46534
    289       0.00000           0.276760            7.53102
    290       0.00000           0.277348            7.54702
    291       0.00000           0.281772            7.66742
    292       0.00000           0.287031            7.81050

  Highest occupied state (VBM) at     -9.16612125 eV
  | Occupation number:      2.00000000

  Lowest unoccupied state (CBM) at    -7.52115602 eV
  | Occupation number:      0.00000000

  Overall HOMO-LUMO gap:      1.64496523 eV.
  Calculating total energy contributions from superposition of free atom densities.

  Total energy components:
  | Sum of eigenvalues            :        -976.71951410 Ha      -26577.89024679 eV
  | XC energy correction          :        -230.19957628 Ha       -6264.04918194 eV
  | XC potential correction       :         295.70157608 Ha        8046.44928401 eV
  | Free-atom electrostatic energy:        -702.61877254 Ha      -19119.22957650 eV
  | Hartree energy correction     :           0.00000000 Ha           0.00000000 eV
  | Entropy correction            :           0.00000000 Ha           0.00000000 eV
  | ---------------------------
  | Total energy                  :       -1613.83628684 Ha      -43914.71972121 eV
  | Total energy, T -> 0          :       -1613.83628684 Ha      -43914.71972121 eV  <-- do not rely on this value for anything but (periodic) metals
  | Electronic free energy        :       -1613.83628684 Ha      -43914.71972121 eV

  Derived energy quantities:
  | Kinetic energy                :        1600.67013352 Ha       43556.45046085 eV
  | Electrostatic energy          :       -2984.30684408 Ha      -81207.12100012 eV
  | Energy correction for multipole
  | error in Hartree potential    :           0.00000000 Ha           0.00000000 eV
  | Sum of eigenvalues per atom                           :        -428.67564914 eV
  | Total energy (T->0) per atom                          :        -708.30193099 eV  <-- do not rely on this value for anything but (periodic) metals
  | Electronic free energy per atom                       :        -708.30193099 eV
  Initialize hartree_potential_storage
  Max. number of atoms included in rho_multipole:           62

  End scf initialization - timings             :  max(cpu_time)    wall_clock(cpu1)
  | Time for scf. initialization               :       11.852 s          11.912 s
  | Boundary condition initialization          :        0.001 s           0.003 s
  | Integration                                :        9.086 s           9.093 s
  | Solution of K.-S. eqns.                    :        0.387 s           0.406 s
  | Grid partitioning                          :        1.113 s           1.117 s
  | Preloading free-atom quantities on grid    :        0.013 s           0.017 s
  | Free-atom superposition energy             :        0.093 s           0.094 s
  | Total energy evaluation                    :        0.001 s           0.003 s

  Partial memory accounting:
  | Current value for overall tracked memory usage on task 0  :           7.490 MB
  | Peak value for overall tracked memory usage on task 0     :          34.625 MB after allocating zora_vector2
  | Largest tracked array allocation on task 0 so far         :           9.245 MB  when allocating hamiltonian_shell
  Note:  These values currently only include a subset of arrays which are explicitly tracked.
  The "true" memory usage will be greater.
------------------------------------------------------------

------------------------------------------------------------
          Begin self-consistency iteration #    1

  Date     :  20210620, Time     :  165250.715
------------------------------------------------------------
  Evaluating new KS density.
  Integration grid: deviation in total charge (<rho> - N_e) =   1.136868E-13
  Pulay mixing of updated and previous charge densities.

  Evaluating partitioned Hartree potential by multipole expansion.
  | Analytical far-field extrapolation by fixed multipoles:
  | Hartree multipole sum: apparent total charge =  -0.786677E-03
  Summing up the Hartree potential with load balancing.
  Time summed over all CPUs for potential: real work       40.109 s, elapsed       72.296 s
  | RMS charge density error from multipole expansion :   0.160136E-01

  Start compute_balanced_batch_distribution
  Done load balancing, time needed:      0.009 s
  Integrating Hamiltonian matrix: batch-based integration with load balancing
  Time summed over all CPUs for integration: real work      241.385 s, elapsed      277.679 s
  Time get_set_full_local_matrix_scalapack:     0.026379 s
  Start compute_balanced_batch_distribution
  Done load balancing, time needed:      0.010 s

  Updating Kohn-Sham eigenvalues and eigenvectors using ELSI and the ELPA eigensolver.
  Finished transformation to standard eigenproblem
  | Time :     0.030 s
  Starting ELPA eigensolver
  Finished solving standard eigenproblem
  | Time :     0.154 s
  Finished back-transformation of eigenvectors
  | Time :     0.007 s

  Obtaining occupation numbers and chemical potential using ELSI.
  | Chemical potential (Fermi level):    -5.45622035 eV
  Writing Kohn-Sham eigenvalues.

  State    Occupation    Eigenvalue [Ha]    Eigenvalue [eV]
      1       2.00000         -10.000820         -272.13614
      2       2.00000          -9.994575         -271.96623
      3       2.00000          -9.992749         -271.91653
      4       2.00000          -9.992469         -271.90890
      5       2.00000          -9.992173         -271.90085
      6       2.00000          -9.990103         -271.84455
      7       2.00000          -9.989981         -271.84123
      8       2.00000          -9.988878         -271.81120
      9       2.00000          -9.988353         -271.79691
     10       2.00000          -9.988224         -271.79340
     11       2.00000          -9.987608         -271.77665
     12       2.00000          -9.987424         -271.77164
     13       2.00000          -9.985901         -271.73020
     14       2.00000          -9.985869         -271.72932
     15       2.00000          -9.985582         -271.72152
     16       2.00000          -9.983369         -271.66128
     17       2.00000          -9.982176         -271.62883
     18       2.00000          -9.980552         -271.58463
     19       2.00000          -9.979607         -271.55891
     20       2.00000          -9.973550         -271.39410
     21       2.00000          -9.971302         -271.33292
     22       2.00000          -9.971160         -271.32907
     23       2.00000          -9.960397         -271.03620
     24       2.00000          -9.956518         -270.93063
     25       2.00000          -9.953894         -270.85924
     26       2.00000          -9.953835         -270.85763
     27       2.00000          -9.953802         -270.85673
     28       2.00000          -9.953121         -270.83821
     29       2.00000          -9.952177         -270.81252
     30       2.00000          -9.951943         -270.80614
     31       2.00000          -9.951890         -270.80470
     32       2.00000          -9.951730         -270.80034
     33       2.00000          -9.951220         -270.78646
     34       2.00000          -9.949828         -270.74860
     35       2.00000          -9.947513         -270.68559
     36       2.00000          -9.944352         -270.59959
     37       2.00000          -9.944062         -270.59169
     38       2.00000          -9.943193         -270.56805
     39       2.00000          -9.942482         -270.54871
     40       2.00000          -9.940453         -270.49350
     41       2.00000          -9.940026         -270.48188
     42       2.00000          -9.939908         -270.47866
     43       2.00000          -0.898876          -24.45966
     44       2.00000          -0.878479          -23.90463
     45       2.00000          -0.866641          -23.58249
     46       2.00000          -0.853883          -23.23535
     47       2.00000          -0.849250          -23.10927
     48       2.00000          -0.828026          -22.53173
     49       2.00000          -0.827890          -22.52803
     50       2.00000          -0.814474          -22.16295
     51       2.00000          -0.798063          -21.71640
     52       2.00000          -0.794964          -21.63208
     53       2.00000          -0.778496          -21.18394
     54       2.00000          -0.768224          -20.90443
     55       2.00000          -0.759646          -20.67102
     56       2.00000          -0.755843          -20.56753
     57       2.00000          -0.744127          -20.24874
     58       2.00000          -0.735304          -20.00864
     59       2.00000          -0.728561          -19.82514
     60       2.00000          -0.723176          -19.67862
     61       2.00000          -0.717983          -19.53731
     62       2.00000          -0.716406          -19.49439
     63       2.00000          -0.694799          -18.90645
     64       2.00000          -0.653979          -17.79568
     65       2.00000          -0.651910          -17.73937
     66       2.00000          -0.649959          -17.68628
     67       2.00000          -0.644921          -17.54918
     68       2.00000          -0.639583          -17.40393
     69       2.00000          -0.630362          -17.15301
     70       2.00000          -0.614107          -16.71071
     71       2.00000          -0.608972          -16.57098
     72       2.00000          -0.605483          -16.47602
     73       2.00000          -0.593624          -16.15333
     74       2.00000          -0.584360          -15.90123
     75       2.00000          -0.573397          -15.60292
     76       2.00000          -0.561242          -15.27218
     77       2.00000          -0.556877          -15.15340
     78       2.00000          -0.546392          -14.86808
     79       2.00000          -0.538163          -14.64416
     80       2.00000          -0.531385          -14.45973
     81       2.00000          -0.524838          -14.28157
     82       2.00000          -0.517698          -14.08728
     83       2.00000          -0.511510          -13.91889
     84       2.00000          -0.505132          -13.74534
     85       2.00000          -0.499977          -13.60506
     86       2.00000          -0.494492          -13.45582
     87       2.00000          -0.487235          -13.25834
     88       2.00000          -0.478997          -13.03416
     89       2.00000          -0.475432          -12.93717
     90       2.00000          -0.471348          -12.82603
     91       2.00000          -0.467617          -12.72451
     92       2.00000          -0.459249          -12.49681
     93       2.00000          -0.453942          -12.35239
     94       2.00000          -0.449562          -12.23320
     95       2.00000          -0.447914          -12.18835
     96       2.00000          -0.445137          -12.11280
     97       2.00000          -0.443385          -12.06512
     98       2.00000          -0.439834          -11.96849
     99       2.00000          -0.436585          -11.88009
    100       2.00000          -0.435576          -11.85263
    101       2.00000          -0.433433          -11.79430
    102       2.00000          -0.426357          -11.60177
    103       2.00000          -0.424852          -11.56082
    104       2.00000          -0.422074          -11.48522
    105       2.00000          -0.416606          -11.33642
    106       2.00000          -0.406753          -11.06832
    107       2.00000          -0.406251          -11.05465
    108       2.00000          -0.402355          -10.94863
    109       2.00000          -0.397944          -10.82860
    110       2.00000          -0.394068          -10.72313
    111       2.00000          -0.391425          -10.65122
    112       2.00000          -0.387816          -10.55301
    113       2.00000          -0.378939          -10.31145
    114       2.00000          -0.376477          -10.24447
    115       2.00000          -0.371647          -10.11303
    116       2.00000          -0.369028          -10.04177
    117       2.00000          -0.363664           -9.89581
    118       2.00000          -0.362335           -9.85963
    119       2.00000          -0.360211           -9.80183
    120       2.00000          -0.356932           -9.71260
    121       2.00000          -0.350184           -9.52900
    122       2.00000          -0.343677           -9.35194
[...]
    122       2.00000          -0.286183           -7.78745
    123       2.00000          -0.283207           -7.70645
    124       2.00000          -0.273858           -7.45204
    125       2.00000          -0.270864           -7.37057
    126       2.00000          -0.269372           -7.32998
    127       2.00000          -0.257196           -6.99865
    128       2.00000          -0.250169           -6.80744
    129       2.00000          -0.248054           -6.74990
    130       2.00000          -0.234843           -6.39040
    131       2.00000          -0.232399           -6.32391
    132       2.00000          -0.222142           -6.04480
    133       2.00000          -0.211495           -5.75507
    134       2.00000          -0.204736           -5.57114
    135       2.00000          -0.203076           -5.52598
    136       2.00000          -0.169214           -4.60453
    137       0.00000          -0.110749           -3.01362
    138       0.00000          -0.078653           -2.14027
    139       0.00000          -0.076824           -2.09049
    140       0.00000          -0.073910           -2.01120
    141       0.00000          -0.064420           -1.75295
    142       0.00000          -0.057079           -1.55320
    143       0.00000          -0.045507           -1.23831
    144       0.00000          -0.034103           -0.92798
    145       0.00000          -0.028315           -0.77049
    146       0.00000          -0.019658           -0.53492
    147       0.00000          -0.009543           -0.25969
    148       0.00000          -0.006166           -0.16779
    149       0.00000          -0.005462           -0.14864
    150       0.00000          -0.004367           -0.11884
    151       0.00000           0.003143            0.08552
    152       0.00000           0.004607            0.12536
    153       0.00000           0.009484            0.25808
    154       0.00000           0.015561            0.42345
    155       0.00000           0.016175            0.44014
    156       0.00000           0.017166            0.46711
    157       0.00000           0.026504            0.72122
    158       0.00000           0.031757            0.86415
    159       0.00000           0.040019            1.08896
    160       0.00000           0.041658            1.13358
    161       0.00000           0.044501            1.21093
    162       0.00000           0.048575            1.32179
    163       0.00000           0.052562            1.43027
    164       0.00000           0.061812            1.68198
    165       0.00000           0.063716            1.73381
    166       0.00000           0.067591            1.83925
    167       0.00000           0.070255            1.91174
    168       0.00000           0.072042            1.96037
    169       0.00000           0.074169            2.01825
    170       0.00000           0.079630            2.16683
    171       0.00000           0.087510            2.38127
    172       0.00000           0.093579            2.54643
    173       0.00000           0.094771            2.57885
    174       0.00000           0.100975            2.74766
    175       0.00000           0.102587            2.79153
    176       0.00000           0.106265            2.89161
    177       0.00000           0.107060            2.91325
    178       0.00000           0.113676            3.09329
    179       0.00000           0.114611            3.11873
    180       0.00000           0.117093            3.18627
    181       0.00000           0.117409            3.19486
    182       0.00000           0.121475            3.30551
    183       0.00000           0.124564            3.38955
    184       0.00000           0.126413            3.43987
    185       0.00000           0.133384            3.62955
    186       0.00000           0.135541            3.68827
    187       0.00000           0.137204            3.73352
    188       0.00000           0.138697            3.77413
    189       0.00000           0.138968            3.78150
    190       0.00000           0.145601            3.96201
    191       0.00000           0.150233            4.08806
    192       0.00000           0.151533            4.12343
    193       0.00000           0.156803            4.26683
    194       0.00000           0.158511            4.31331
    195       0.00000           0.159120            4.32986
    196       0.00000           0.161559            4.39625
    197       0.00000           0.163300            4.44362
    198       0.00000           0.164823            4.48507
    199       0.00000           0.166688            4.53581
    200       0.00000           0.168445            4.58363
    201       0.00000           0.170577            4.64165
    202       0.00000           0.172810            4.70241
    203       0.00000           0.176930            4.81450
    204       0.00000           0.177918            4.84139
    205       0.00000           0.180395            4.90878
    206       0.00000           0.182056            4.95399
    207       0.00000           0.184963            5.03310
    208       0.00000           0.187377            5.09878
    209       0.00000           0.188789            5.13722
    210       0.00000           0.190922            5.19526
    211       0.00000           0.192136            5.22830
    212       0.00000           0.195599            5.32253
    213       0.00000           0.197293            5.36861
    214       0.00000           0.200249            5.44905
    215       0.00000           0.202090            5.49914
    216       0.00000           0.203729            5.54374
    217       0.00000           0.207551            5.64776
    218       0.00000           0.209622            5.70410
    219       0.00000           0.210923            5.73952
    220       0.00000           0.212734            5.78878
    221       0.00000           0.216306            5.88597
    222       0.00000           0.218999            5.95928
    223       0.00000           0.220094            5.98907
    224       0.00000           0.223171            6.07278
    225       0.00000           0.224187            6.10043
    226       0.00000           0.226152            6.15390
    227       0.00000           0.226336            6.15892
    228       0.00000           0.227783            6.19828
    229       0.00000           0.232629            6.33015
    230       0.00000           0.234345            6.37685
    231       0.00000           0.237512            6.46304
    232       0.00000           0.239305            6.51183
    233       0.00000           0.239605            6.51999
    234       0.00000           0.241950            6.58380
    235       0.00000           0.243959            6.63845
    236       0.00000           0.246716            6.71348
    237       0.00000           0.249307            6.78398
    238       0.00000           0.253391            6.89513
    239       0.00000           0.254275            6.91917
    240       0.00000           0.255888            6.96307
    241       0.00000           0.256475            6.97903
    242       0.00000           0.257136            6.99704
    243       0.00000           0.263080            7.15878
    244       0.00000           0.265814            7.23318
    245       0.00000           0.269658            7.33776
    246       0.00000           0.270501            7.36069
    247       0.00000           0.274356            7.46561
    248       0.00000           0.276720            7.52993
    249       0.00000           0.278732            7.58467
    250       0.00000           0.280473            7.63207
    251       0.00000           0.283700            7.71988
    252       0.00000           0.285173            7.75997
    253       0.00000           0.289150            7.86816
    254       0.00000           0.293453            7.98527
    255       0.00000           0.293629            7.99006
    256       0.00000           0.296529            8.06896
    257       0.00000           0.301029            8.19141
    258       0.00000           0.302271            8.22521
    259       0.00000           0.306708            8.34595
    260       0.00000           0.307010            8.35418
    261       0.00000           0.311738            8.48281
    262       0.00000           0.314168            8.54896
    263       0.00000           0.316964            8.62502
    264       0.00000           0.318332            8.66225
    265       0.00000           0.322142            8.76594
    266       0.00000           0.323014            8.78965
    267       0.00000           0.326399            8.88176
    268       0.00000           0.328956            8.95135
    269       0.00000           0.333616            9.07816
    270       0.00000           0.334837            9.11138
    271       0.00000           0.337370            9.18030
    272       0.00000           0.338952            9.22336
    273       0.00000           0.341142            9.28296
    274       0.00000           0.344214            9.36655
    275       0.00000           0.349155            9.50100
    276       0.00000           0.350177            9.52880
    277       0.00000           0.353811            9.62770
    278       0.00000           0.357441            9.72646
    279       0.00000           0.363243            9.88434
    280       0.00000           0.364910            9.92970
    281       0.00000           0.368231           10.02008
    282       0.00000           0.372094           10.12520
    283       0.00000           0.373089           10.15226
    284       0.00000           0.377934           10.28410
    285       0.00000           0.380199           10.34573
    286       0.00000           0.384346           10.45857
    287       0.00000           0.385868           10.50000
    288       0.00000           0.387464           10.54342
    289       0.00000           0.392889           10.69106
    290       0.00000           0.394850           10.74442
    291       0.00000           0.396593           10.79185
    292       0.00000           0.398609           10.84669

  Highest occupied state (VBM) at     -4.60453482 eV
  | Occupation number:      2.00000000

  Lowest unoccupied state (CBM) at    -3.01362006 eV
  | Occupation number:      0.00000000

  Overall HOMO-LUMO gap:      1.59091476 eV.

  Total energy components:
  | Sum of eigenvalues            :        -918.38483862 Ha      -24990.52296266 eV
  | XC energy correction          :        -234.13980322 Ha       -6371.26821229 eV
  | XC potential correction       :         300.79494562 Ha        8185.04692099 eV
  | Free-atom electrostatic energy:        -702.61877254 Ha      -19119.22957650 eV
  | Hartree energy correction     :         -57.63280792 Ha       -1568.26849608 eV
  | Entropy correction            :           0.00000000 Ha           0.00000000 eV
  | ---------------------------
  | Total energy                  :       -1611.98127668 Ha      -43864.24232654 eV
  | Total energy, T -> 0          :       -1611.98127668 Ha      -43864.24232654 eV  <-- do not rely on this value for anything but (periodic) metals
  | Electronic free energy        :       -1611.98127668 Ha      -43864.24232654 eV

  Derived energy quantities:
  | Kinetic energy                :        1608.09712846 Ha       43758.54927583 eV
  | Electrostatic energy          :       -2985.93860191 Ha      -81251.52339008 eV
  | Energy correction for multipole
  | error in Hartree potential    :          -0.20608593 Ha          -5.60788345 eV
  | Sum of eigenvalues per atom                           :        -403.07295101 eV
  | Total energy (T->0) per atom                          :        -707.48777946 eV  <-- do not rely on this value for anything but (periodic) metals
  | Electronic free energy per atom                       :        -707.48777946 eV
  End evaluation of scaled ZORA corrections.
  | Time for scaled ZORA corrections           :        8.444 s           8.457 s
------------------------------------------------------------

  Energy and forces in a compact form:
  | Total energy uncorrected      :         -0.438642423265363E+05 eV
  | Total energy corrected        :         -0.438642423265363E+05 eV  <-- do not rely on this value for anything but (periodic) metals
  | Electronic free energy        :         -0.438642423265363E+05 eV

  ------------------------------------ 
  Start decomposition of the XC Energy 
  ------------------------------------ 
  X and C from original XC functional choice 
  Hartree-Fock Energy :          0.000000000 Ha              0.000000000 eV
  X Energy            :       -224.933361164 Ha          -6120.748177516 eV
  C Energy            :         -9.206442060 Ha           -250.520034770 eV
  Total XC Energy     :       -234.139803224 Ha          -6371.268212286 eV
  ------------------------------------ 
  LDA X and C from self-consistent density 
  X Energy LDA        :       -203.812237542 Ha          -5546.013161555 eV
  C Energy LDA        :        -17.665382866 Ha           -480.699525518 eV
  ------------------------------------ 
  End decomposition of the XC Energy 
  ------------------------------------ 

------------------------------------------------------------

------------------------------------------------------------------------------
  Final output of selected total energy values:

  The following output summarizes some interesting total energy values
  at the end of a run (AFTER all relaxation, molecular dynamics, etc.).

  | Total energy of the DFT / Hartree-Fock s.c.f. calculation      :         -43864.242326536 eV
  | Final zero-broadening corrected energy (caution - metals only) :         -43864.242326536 eV
  | For reference only, the value of 1 Hartree used in FHI-aims is :             27.211384500 eV

  Before relying on these values, please be sure to understand exactly which
  total energy value is referred to by a given number. Different objects may
  all carry the same name 'total energy'. Definitions:

  Total energy of the DFT / Hartree-Fock s.c.f. calculation:
  | Note that this energy does not include ANY quantities calculated after the
  | s.c.f. cycle, in particular not ANY RPA, MP2, etc. many-body perturbation terms.
  | Scalar relativistic effects have been included in the 'scaled ZORA' approximation.

  Final zero-broadening corrected energy:
  | For metallic systems only, a broadening of the occupation numbers at the Fermi
  | level can be extrapolated back to zero broadening by an electron-gas inspired
  | formula. For all systems that are not real metals, this value can be
  | meaningless and should be avoided.

------------------------------------------------------------------------------
  Methods described in the following list of references were used in this FHI-aims run.
  If you publish the results, please make sure to cite these reference if they apply.
  FHI-aims is an academic code, and for our developers (often, Ph.D. students
  and postdocs), scientific credit in the community is essential.
  Thank you for helping us!

  For any use of FHI-aims, please cite:

    Volker Blum, Ralf Gehrke, Felix Hanke, Paula Havu, Ville Havu,
    Xinguo Ren, Karsten Reuter, and Matthias Scheffler
    'Ab initio molecular simulations with numeric atom-centered orbitals'
    Computer Physics Communications 180, 2175-2196 (2009)
    http://dx.doi.org/10.1016/j.cpc.2009.06.022


  The scalable eigensolver library ELPA was used in your run.
  ELPA is essential especially for large systems on hundreds or thousands of CPUs.
  For ELPA, please cite:

    Andreas Marek, Volker Blum, Rainer Johanni, Ville Havu, Bruno Lang,
    Thomas Auckenthaler, Alexander Heinecke, Hans-Joachim Bungartz, and Hermann Lederer,
    'The ELPA Library - Scalable Parallel Eigenvalue Solutions
    for Electronic Structure Theory and Computational Science'
    The Journal of Physics: Condensed Matter 26, 213201 (2014).
    http://dx.doi.org/10.1088/0953-8984/26/21/213201


  The ELSI infrastructure was used in your run to solve the Kohn-Sham electronic structure.
  Please check out http://elsi-interchange.org to learn more.
  If scalability is important for your project, please acknowledge ELSI by citing:

    V. W-z. Yu, F. Corsetti, A. Garcia, W. P. Huhn, M. Jacquelin, W. Jia,
    B. Lange, L. Lin, J. Lu, W. Mi, A. Seifitokaldani, A. Vazquez-Mayagoitia,
    C. Yang, H. Yang, and V. Blum
    'ELSI: A unified software interface for Kohn-Sham electronic structure solvers'
    Computer Physics Communications 222, 267-285 (2018).
    http://dx.doi.org/10.1016/j.cpc.2017.09.007


  For the real-space grid partitioning and parallelization used in this calculation, please cite:

    Ville Havu, Volker Blum, Paula Havu, and Matthias Scheffler,
    'Efficient O(N) integration for all-electron electronic structure calculation'
    'using numerically tabulated basis functions'
    Journal of Computational Physics 228, 8367-8379 (2009).
    http://dx.doi.org/10.1016/j.jcp.2009.08.008

  Of course, there are many other important community references, e.g., those cited in the
  above references. Our list is limited to references that describe implementations in the
  FHI-aims code. The reason is purely practical (length of this list) - please credit others as well.

------------------------------------------------------------
          Leaving FHI-aims.
          Date     :  20210620, Time     :  165528.954

          Computational steps:
          | Number of self-consistency cycles          :           19
          | Number of SCF (re)initializations          :            1

          Detailed time accounting                     :  max(cpu_time)    wall_clock(cpu1)
          | Total time                                 :      169.779 s         170.522 s
          | Preparation time                           :        0.189 s           0.175 s
          | Boundary condition initalization           :        0.001 s           0.003 s
          | Grid partitioning                          :        1.113 s           1.117 s
          | Preloading free-atom quantities on grid    :        0.013 s           0.017 s
          | Free-atom superposition energy             :        0.093 s           0.094 s
          | Total time for integrations                :       95.345 s          95.355 s
          | Total time for solution of K.-S. equations :        5.329 s           5.356 s
          | Total time for density update              :       41.560 s          41.499 s
          | Total time for mixing                      :        0.201 s           0.202 s
          | Total time for Hartree multipole update    :        0.239 s           0.247 s
          | Total time for Hartree multipole sum       :       15.771 s          15.776 s
          | Total time for total energy evaluation     :        0.006 s           0.031 s
          | Total time for scaled ZORA corrections     :        8.444 s           8.457 s

          Partial memory accounting:
          | Residual value for overall tracked memory usage across tasks :     0.000000 MB (should be 0.000000 MB)
          | Peak values for overall tracked memory usage (after allocating zora_vector2):
          |   Minimum:       32.692 MB (on task 24)
          |   Maximum:       45.978 MB (on task  4)
          |   Average:       38.365 MB
          | Largest tracked array allocation (hamiltonian_shell):
          |   Minimum:        9.245 MB (on task  1)
          |   Maximum:       10.208 MB (on task  4)
          |   Average:        9.278 MB
          Note:  These values currently only include a subset of arrays which are explicitly tracked.
          The "true" memory usage will be greater.

          Have a nice day.
------------------------------------------------------------
