  MPI-parallelism will be employed.
------------------------------------------------------------
          Invoking FHI-aims ...
          Version 180607
          Git rev. (modified): 6724847 Fix JSON memory corruption in scf_solver
          Compiled on 2018/06/27 at 16:00:31 on host coe.psc.edu.

          When using FHI-aims, please cite the following reference:

          Volker Blum, Ralf Gehrke, Felix Hanke, Paula Havu,
          Ville Havu, Xinguo Ren, Karsten Reuter, and Matthias Scheffler,
          'Ab Initio Molecular Simulations with Numeric Atom-Centered Orbitals',
          Computer Physics Communications 180, 2175-2196 (2009)

          For any questions about FHI-aims, please visit the aimsclub website
          with its forums and wiki. Contributions to both the forums and the
          wiki are warmly encouraged - they are for you, and everyone is welcome there.

------------------------------------------------------------



  Date     :  20210620, Time     :  180010.998
  Time zero on CPU 1             :   0.304261000000000E+00  s.
  Internal wall clock time zero  :           393444010.998  s.

  FHI-aims created a unique identifier for this run for later identification
  aims_uuid : 81A0270F-B468-44B2-A727-2F91A68EDDDE

  Using       56 parallel tasks.
  Task        0 on host d001 reporting.
  Task        1 on host d001 reporting.
  Task        2 on host d001 reporting.
  Task        3 on host d001 reporting.
  Task        4 on host d001 reporting.
  Task        5 on host d001 reporting.
  Task        6 on host d001 reporting.
  Task        7 on host d001 reporting.
  Task        8 on host d001 reporting.
  Task        9 on host d001 reporting.
  Task       10 on host d001 reporting.
  Task       11 on host d001 reporting.
  Task       12 on host d001 reporting.
  Task       13 on host d001 reporting.
  Task       14 on host d001 reporting.
  Task       15 on host d001 reporting.
  Task       16 on host d001 reporting.
  Task       17 on host d001 reporting.
  Task       18 on host d001 reporting.
  Task       19 on host d001 reporting.
  Task       20 on host d001 reporting.
  Task       21 on host d001 reporting.
  Task       22 on host d001 reporting.
  Task       23 on host d001 reporting.
  Task       24 on host d001 reporting.
  Task       25 on host d001 reporting.
  Task       26 on host d001 reporting.
  Task       27 on host d001 reporting.
  Task       28 on host d001 reporting.
  Task       29 on host d001 reporting.
  Task       30 on host d001 reporting.
  Task       31 on host d001 reporting.
  Task       32 on host d001 reporting.
  Task       33 on host d001 reporting.
  Task       34 on host d001 reporting.
  Task       35 on host d001 reporting.
  Task       36 on host d001 reporting.
  Task       37 on host d001 reporting.
  Task       38 on host d001 reporting.
  Task       39 on host d001 reporting.
  Task       40 on host d001 reporting.
  Task       41 on host d001 reporting.
  Task       42 on host d001 reporting.
  Task       43 on host d001 reporting.
  Task       44 on host d001 reporting.
  Task       45 on host d001 reporting.
  Task       46 on host d001 reporting.
  Task       47 on host d001 reporting.
  Task       48 on host d001 reporting.
  Task       49 on host d001 reporting.
  Task       50 on host d001 reporting.
  Task       51 on host d001 reporting.
  Task       52 on host d001 reporting.
  Task       53 on host d001 reporting.
  Task       54 on host d001 reporting.
  Task       55 on host d001 reporting.

  Performing system and environment tests:
  *** Environment variable OMP_NUM_THREADS is not set
  *** For performance reasons you might want to set it to 1
  | Stacksize not measured: no C compiler
  | Checking for scalapack...
  | Testing pdtran()...
  | All pdtran() tests passed.

  Obtaining array dimensions for all initial allocations:
  
  -----------------------------------------------------------------------
  Parsing control.in (first pass over file, find array dimensions only).
  The contents of control.in will be repeated verbatim below
  unless switched off by setting 'verbatim_writeout .false.' .
  in the first line of control.in .
  -----------------------------------------------------------------------
  
  #===============================================================================
  # FHI-aims file: ./Runs/es/control.in
  # Created using the Atomic Simulation Environment (ASE)
  # Mon Jan 13 16:04:38 2020
  #===============================================================================
  xc                                 pbe
  relativistic                       zora scalar 1e-12
  occupation_type                    gaussian 0.0001
  load_balancing                     .true.
  KS_method                          scalapack_fast
  mixer                              pulay
  n_max_pulay                        5
  charge_mix_param                   0.4
  sc_accuracy_etot                   1e-6
  sc_accuracy_eev                    1e-4
  sc_accuracy_rho                    1e-6
  sc_iter_limit                      100
  prodbas_threshold                  1e-4
  basis_threshold                    1e-5
  override_illconditioning           .true.
  use_logsbt                         .true.
  spin                               none
  charge                             0
  #===============================================================================
  
  ################################################################################
  #
  #  FHI-aims code project
  # Volker Blum, Fritz Haber Institute Berlin, 2009
  #
  #  Suggested "tight" defaults for H atom (to be pasted into control.in file)
  #
  ################################################################################
    species        H
  #     global species definitions
      nucleus             1
      mass                1.00794
  #
      l_hartree           6
  #
      cut_pot             4.0  2.0  1.0
      basis_dep_cutoff    1e-4
  #
      radial_base         24 7.0
      radial_multiplier   2
      angular_grids       specified
        division   0.1930   50
        division   0.3175  110
        division   0.4293  194
        division   0.5066  302
        division   0.5626  434
  #      division   0.5922  590
  #      division   0.6227  974
  #      division   0.6868 1202
  #      outer_grid  770
        outer_grid  434
  ################################################################################
  #
  #  Definition of "minimal" basis
  #
  ################################################################################
  #     valence basis states
      valence      1  s   1.
  #     ion occupancy
      ion_occ      1  s   0.5
  ################################################################################
  #
  #  Suggested additional basis functions. For production calculations,
  #  uncomment them one after another (the most important basis functions are
  #  listed first).
  #
  #  Basis constructed for dimers: 0.5 A, 0.7 A, 1.0 A, 1.5 A, 2.5 A
  #
  ################################################################################
  #  "First tier" - improvements: -1014.90 meV to -62.69 meV
       hydro 2 s 2.1
       hydro 2 p 3.5
  #  "Second tier" - improvements: -12.89 meV to -1.83 meV
       hydro 1 s 0.85
       hydro 2 p 3.7
       hydro 2 s 1.2
       hydro 3 d 7
  #  "Third tier" - improvements: -0.25 meV to -0.12 meV
  #     hydro 4 f 11.2
  #     hydro 3 p 4.8
  #     hydro 4 d 9
  #     hydro 3 s 3.2
  ################################################################################
  #
  # For methods that use the localized form of the "resolution of identity" for
  # the two-electron Coulomb operator (RI_method LVL), particularly Hartree-Fock and
  # hybrid density functional calculations, the highest accuracy can be obtained by
  # uncommenting the line beginning with "for_aux"  below, thus adding an extra g radial
  # function to the construction of the product basis set for the expansion.
  # See Ref. New J. Phys. 17, 093020 (2015) for more information, particularly Figs. 1 and 6.
  #
  ################################################################################
  #
  # for_aux hydro 5 g 6.0
  ################################################################################
  #
  #  FHI-aims code project
  # Volker Blum, Fritz Haber Institute Berlin, 2009
  #
  #  Suggested "tight" defaults for C atom (to be pasted into control.in file)
  #
  ################################################################################
    species        C
  #     global species definitions
      nucleus             6
      mass                12.0107
  #
      l_hartree           6
  #
      cut_pot             4.0  2.0  1.0
      basis_dep_cutoff    1e-4
  #
      radial_base         34 7.0
      radial_multiplier   2
      angular_grids specified
        division   0.2187   50
        division   0.4416  110
        division   0.6335  194
        division   0.7727  302
        division   0.8772  434
  #      division   0.9334  590
  #      division   0.9924  770
  #      division   1.0230  974
  #      division   1.5020 1202
  #     outer_grid  974
        outer_grid  434
  ################################################################################
  #
  #  Definition of "minimal" basis
  #
  ################################################################################
  #     valence basis states
      valence      2  s   2.
      valence      2  p   2.
  #     ion occupancy
      ion_occ      2  s   1.
      ion_occ      2  p   1.
  ################################################################################
  #
  #  Suggested additional basis functions. For production calculations,
  #  uncomment them one after another (the most important basis functions are
  #  listed first).
  #
  #  Constructed for dimers: 1.0 A, 1.25 A, 1.5 A, 2.0 A, 3.0 A
  #
  ################################################################################
  #  "First tier" - improvements: -1214.57 meV to -155.61 meV
       hydro 2 p 1.7
       hydro 3 d 6
       hydro 2 s 4.9
  #  "Second tier" - improvements: -67.75 meV to -5.23 meV
       hydro 4 f 9.8
       hydro 3 p 5.2
       hydro 3 s 4.3
       hydro 5 g 14.4
       hydro 3 d 6.2
  #  "Third tier" - improvements: -2.43 meV to -0.60 meV
  #     hydro 2 p 5.6
  #     hydro 2 s 1.4
  #     hydro 3 d 4.9
  #     hydro 4 f 11.2
  #  "Fourth tier" - improvements: -0.39 meV to -0.18 meV
  #     hydro 2 p 2.1
  #     hydro 5 g 16.4
  #     hydro 4 d 13.2
  #     hydro 3 s 13.6
  #     hydro 4 f 17.6
  #  Further basis functions - improvements: -0.08 meV and below
  #     hydro 3 s 2
  #     hydro 3 p 6
  #     hydro 4 d 20
  ################################################################################
  #
  # For methods that use the localized form of the "resolution of identity" for
  # the two-electron Coulomb operator (RI_method LVL), particularly Hartree-Fock and
  # hybrid density functional calculations, the highest accuracy can be obtained by
  # uncommenting the line beginning with "for_aux"  below, thus adding an extra g radial
  # function to the construction of the product basis set for the expansion.
  # See Ref. New J. Phys. 17, 093020 (2015) for more information, particularly Figs. 1 and 6.
  #
  ################################################################################
  #
  # for_aux hydro 5 g 6.0
  
  -----------------------------------------------------------------------
  Completed first pass over input file control.in .
  -----------------------------------------------------------------------
  
  
  -----------------------------------------------------------------------
  Parsing geometry.in (first pass over file, find array dimensions only).
  The contents of geometry.in will be repeated verbatim below
  unless switched off by setting 'verbatim_writeout .false.' .
  in the first line of geometry.in .
  -----------------------------------------------------------------------
  
  #=======================================================
  # FHI-aims file: geometry.in
  # Created using the Atomic Simulation Environment (ASE)
  # Sun Jun 20 15:47:02 2021
  #=======================================================
  atom 12.9182849999999991 12.3008550000000003 53.4937869999999975 H
  atom 12.1325360000000000 11.9528110000000005 52.8239840000000029 C
  atom 11.1257239999999999 11.1312970000000000 53.2827529999999996 C
  atom 12.1448140000000002 12.3608960000000003 51.4957380000000029 C
  atom 10.1535130000000002 10.7147430000000004 52.4067229999999995 C
  atom 11.0994930000000007 10.8192520000000005 54.3263439999999989 H
  atom 11.1659070000000007 11.9508050000000008 50.6022310000000033 C
  atom 12.9497619999999998 13.0165469999999992 51.1695750000000018 H
  atom 9.3545370000000005 10.0549820000000008 52.7444640000000007 H
  atom 10.1641169999999992 11.1138469999999998 51.0850310000000007 C
  atom 11.1854399999999998 12.3968550000000004 49.1866010000000031 C
  atom 9.3674289999999996 10.7604179999999996 50.4359820000000028 H
  atom 10.1987190000000005 12.0146990000000002 48.3127550000000028 C
  atom 12.1526280000000000 13.2089210000000001 48.6448159999999987 C
  atom 9.3790940000000003 11.3742629999999991 48.6310530000000014 H
  atom 10.1925799999999995 12.4151129999999998 46.9932469999999967 C
  atom 12.1392330000000008 13.6053010000000008 47.3253089999999972 C
  atom 12.9853129999999997 13.5586850000000005 49.2534500000000008 H
  atom 9.3636339999999993 12.0626270000000009 46.3798079999999970 H
  atom 11.1508380000000002 13.2312139999999996 46.4514629999999968 C
  atom 12.9596959999999992 14.2454140000000002 47.0070109999999985 H
  atom 11.1413499999999992 13.6743400000000008 45.0336479999999995 C
  atom 10.1635589999999993 13.2992530000000002 44.1379560000000026 C
  atom 12.1515109999999993 14.4858729999999998 44.5595870000000005 C
  atom 9.3432080000000006 12.6568109999999994 44.4555989999999994 H
  atom 10.1724890000000006 13.7229670000000006 42.8250030000000024 C
  atom 12.1604410000000005 14.9095870000000001 43.2466330000000028 C
  atom 12.9630449999999993 14.8158119999999993 45.2023000000000010 H
  atom 9.3609550000000006 13.3930290000000003 42.1822889999999973 H
  atom 11.1826500000000006 14.5345010000000006 42.3509409999999988 C
  atom 12.9807919999999992 15.5520300000000002 42.9289899999999989 H
  atom 11.1731619999999996 14.9776260000000008 40.9331260000000015 C
  atom 10.1847670000000008 14.6035400000000006 40.0592800000000011 C
  atom 12.1314200000000003 15.7937279999999998 40.3913420000000016 C
  atom 9.3643040000000006 13.9634269999999994 40.3775789999999972 H
  atom 10.1713730000000009 14.9999199999999995 38.7397729999999996 C
  atom 12.1252809999999993 16.1941419999999994 39.0718340000000026 C
  atom 12.9603660000000005 16.1462140000000005 41.0047819999999987 H
  atom 9.3386870000000002 14.6501549999999998 38.1311389999999975 H
  atom 11.1385600000000000 15.8119859999999992 38.1979889999999997 C
  atom 12.9449059999999996 16.8345780000000005 38.7535359999999969 H
  atom 11.1580929999999992 16.2580360000000006 36.7823580000000021 C
  atom 10.1791859999999996 15.8479449999999993 35.8888510000000025 C
  atom 12.1598830000000007 17.0949929999999988 36.2995579999999975 C
  atom 9.3742380000000001 15.1922940000000004 36.2150139999999965 H
  atom 10.1914639999999999 16.2560290000000016 34.5606050000000025 C
  atom 12.1704869999999996 17.4940970000000000 34.9778659999999988 C
  atom 12.9565710000000003 17.4484229999999982 36.9486070000000026 H
  atom 9.4057150000000007 15.9079850000000000 33.8908020000000008 H
  atom 11.1982769999999991 17.0775439999999996 34.1018359999999987 C
  atom 12.9694629999999993 18.1538590000000006 34.6401249999999976 H
  atom 11.2245069999999991 17.3895879999999998 33.0582449999999994 H
  
  -----------------------------------------------------------------------
  Completed first pass over input file geometry.in .
  -----------------------------------------------------------------------
  

  Basic array size parameters:
  | Number of species                 :        2
  | Number of atoms                   :       52
  | Max. basis fn. angular momentum   :        4
  | Max. atomic/ionic basis occupied n:        2
  | Max. number of basis fn. types    :        2
  | Max. radial fns per species/type  :        8
  | Max. logarithmic grid size        :     1277
  | Max. radial integration grid size :       69
  | Max. angular integration grid size:      434
  | Max. angular grid division number :        8
  | Radial grid for Hartree potential :     1277
  | Number of spin channels           :        1

------------------------------------------------------------
          Reading file control.in.
------------------------------------------------------------
  XC: Using PBE gradient-corrected functionals.
  Scalar relativistic treatment of kinetic energy: ZORA.
  Threshold value for ZORA:   0.100000E-11
  Occupation type: Gaussian broadening, width =   0.100000E-03 eV.
  Since 'load_balancing .true.' is present in control.in, automatically turning on 'use_local_index .true.'.
  Using load balancing for integrations.
  Kohn-Sham electronic structure solved by the ELSI library.
  Using pulay charge density mixing.
  Pulay mixing - number of memorized iterations:    5
  Charge density mixing - mixing parameter:     0.4000
  Convergence accuracy of total energy:  0.1000E-05
  Convergence accuracy of sum of eigenvalues:  0.1000E-03
  Convergence accuracy of self-consistent charge density:  0.1000E-05
  Maximum number of s.-c. iterations  :   100
  * Ignoring prodbas_threshold
  Threshold for basis singularities:  0.1000E-04
  override_illconditioning: Explicitly overriding any built-in checks for an ill-conditioned overlap matrix.
  *** WARNING: If you use this flag, you should really know what you are doing.
  *** DO NOT keep this flag set by default in all your control.in files.
  Using 1D integrations for auxiliary 2-center integrals.
  Spin treatment: No spin polarisation.
  Charge =   0.000000E+00: Neutral system requested explicitly.
 
  Reading configuration options for species H                   .
  | Found nuclear charge :   1.0000
  | Found atomic mass :    1.00794000000000      amu
  | Found l_max for Hartree potential  :   6
  | Found cutoff potl. onset [A], width [A], scale factor :    4.00000    2.00000    1.00000
  | Threshold for basis-dependent cutoff potential is   0.100000E-03
  | Found data for basic radial integration grid :    24 points, outermost radius =    7.000 A
  | Found multiplier for basic radial grid :   2
  | Found angular grid specification: user-specified.
  | Specified grid contains     6 separate shells.
  | Check grid settings after all constraints further below.
  | Found free-atom valence shell :  1 s   1.000
  | No ionic wave fns used. Skipping ion_occ.
  | Found hydrogenic basis function :  2 s   2.100
  | Found hydrogenic basis function :  2 p   3.500
  | Found hydrogenic basis function :  1 s   0.850
  | Found hydrogenic basis function :  2 p   3.700
  | Found hydrogenic basis function :  2 s   1.200
  | Found hydrogenic basis function :  3 d   7.000
  Species H                   : Missing cutoff potential type.
  Defaulting to exp(1/x)/(1-x)^2 type cutoff potential.
  Species H : No 'logarithmic' tag. Using default grid for free atom:
  | Default logarithmic grid data [bohr] : 0.1000E-03 0.1000E+03 0.1012E+01
  Species H : On-site basis accuracy parameter (for Gram-Schmidt orthonormalisation) not specified.
  Using default value basis_acc =  0.1000000E-03.
  Species H                   : Using default innermost maximum threshold i_radial=  2 for radial functions.
  Species H                   : Default cutoff onset for free atom density etc. : 0.40000000E+01 AA.
  Species H                   : Basic radial grid will be enhanced according to radial_multiplier =   2, to contain    49 grid points.
 
  Reading configuration options for species C                   .
  | Found nuclear charge :   6.0000
  | Found atomic mass :    12.0107000000000      amu
  | Found l_max for Hartree potential  :   6
  | Found cutoff potl. onset [A], width [A], scale factor :    4.00000    2.00000    1.00000
  | Threshold for basis-dependent cutoff potential is   0.100000E-03
  | Found data for basic radial integration grid :    34 points, outermost radius =    7.000 A
  | Found multiplier for basic radial grid :   2
  | Found angular grid specification: user-specified.
  | Specified grid contains     6 separate shells.
  | Check grid settings after all constraints further below.
  | Found free-atom valence shell :  2 s   2.000
  | Found free-atom valence shell :  2 p   2.000
  | No ionic wave fns used. Skipping ion_occ.
  | No ionic wave fns used. Skipping ion_occ.
  | Found hydrogenic basis function :  2 p   1.700
  | Found hydrogenic basis function :  3 d   6.000
  | Found hydrogenic basis function :  2 s   4.900
  | Found hydrogenic basis function :  4 f   9.800
  | Found hydrogenic basis function :  3 p   5.200
  | Found hydrogenic basis function :  3 s   4.300
  | Found hydrogenic basis function :  5 g  14.400
  | Found hydrogenic basis function :  3 d   6.200
  Species C                   : Missing cutoff potential type.
  Defaulting to exp(1/x)/(1-x)^2 type cutoff potential.
  Species C : No 'logarithmic' tag. Using default grid for free atom:
  | Default logarithmic grid data [bohr] : 0.1000E-03 0.1000E+03 0.1012E+01
  Species C : On-site basis accuracy parameter (for Gram-Schmidt orthonormalisation) not specified.
  Using default value basis_acc =  0.1000000E-03.
  Species C                   : Using default innermost maximum threshold i_radial=  2 for radial functions.
  Species C                   : Default cutoff onset for free atom density etc. : 0.40000000E+01 AA.
  Species C                   : Basic radial grid will be enhanced according to radial_multiplier =   2, to contain    69 grid points.
 
  Finished reading input file 'control.in'. Consistency checks are next.
 
  MPI_IN_PLACE appears to work with this MPI implementation.
  | Keeping use_mpi_in_place .true. (see manual).
  Target number of points in a grid batch is not set. Defaulting to  100
  Method for grid partitioning is not set. Defaulting to parallel hash+maxmin partitioning.
  Batch size limit is not set. Defaulting to    200
  By default, will store active basis functions for each batch.
  If in need of memory, prune_basis_once .false. can be used to disable this option.
  communication_type for Hartree potential was not specified.
  Defaulting to calc_hartree .
  Pulay mixer: Number of initial linear mixing iterations not set.
  Defaulting to    0 iterations.
  Work space size for distributed Hartree potential not set.
  Defaulting to   0.200000E+03 MB.
  Algorithm-dependent basis array size parameters:
  | n_max_pulay                         :        5
  Presetting      1001 iterations before the initial mixing cycle
  is restarted anyway using the sc_init_iter criterion / keyword.
  Presetting a factor      1.000 between actual scf density residual
  and density convergence criterion sc_accuracy_rho below which sc_init_iter
  takes no effect.
  Calculation of forces was not defined in control.in. No forces will be calculated.
  Geometry relaxation not requested: no relaxation will be performed.
  No accuracy limit for integral partition fn. given. Defaulting to  0.1000E-14.
  No threshold value for u(r) in integrations given. Defaulting to  0.1000E-05.
  No accuracy for occupation numbers given. Defaulting to  0.1000E-12.
  No threshold value for occupation numbers given. Defaulting to  0.0000E+00.
  No accuracy for fermi level given. Defaulting to  0.1000E-19.
  Maximum # of iterations to find E_F not set. Defaulting to  200.
  Will not use alltoall communication since running on < 1024 CPUs.
  partition_type (choice of integration weights) for integrals was not specified.
  | Using a version of the partition function of Stratmann and coworkers ('stratmann_sparse').
  | At each grid point, the set of atoms used to build the partition table is smoothly restricted to
  | only those atoms whose free-atom density would be non-zero at that grid point.
  Partitioning for Hartree potential was not defined. Using partition_type for integrals.
  | Adjusted default value of keyword multip_moments_threshold to:       0.10000000E-11
  | This value may affect high angular momentum components of the Hartree potential in periodic systems.
  No q(lm)/r^(l+1) cutoff set for long-range Hartree potential.
  | Using default value of  0.100000E-09 .
  | Verify using the multipole_threshold keyword.
  Defaulting to new monopole extrapolation.
  Density update method: automatic selection selected.
 * Warning: use_local_index and/or load_balancing needs packed_matrix_format = index
 * Changing the default setting to packed_matrix_format = index
------------------------------------------------------------


------------------------------------------------------------
          Reading geometry description geometry.in.
------------------------------------------------------------
  Input structure read successfully.
  The structure contains       52 atoms,  and a total of        202.000 electrons.

  Input geometry:
  | No unit cell requested.
  | Atomic structure:
  |       Atom                x [A]            y [A]            z [A]
  |    1: Species H            12.91828500       12.30085500       53.49378700
  |    2: Species C            12.13253600       11.95281100       52.82398400
  |    3: Species C            11.12572400       11.13129700       53.28275300
  |    4: Species C            12.14481400       12.36089600       51.49573800
  |    5: Species C            10.15351300       10.71474300       52.40672300
  |    6: Species H            11.09949300       10.81925200       54.32634400
  |    7: Species C            11.16590700       11.95080500       50.60223100
  |    8: Species H            12.94976200       13.01654700       51.16957500
  |    9: Species H             9.35453700       10.05498200       52.74446400
  |   10: Species C            10.16411700       11.11384700       51.08503100
  |   11: Species C            11.18544000       12.39685500       49.18660100
  |   12: Species H             9.36742900       10.76041800       50.43598200
  |   13: Species C            10.19871900       12.01469900       48.31275500
  |   14: Species C            12.15262800       13.20892100       48.64481600
  |   15: Species H             9.37909400       11.37426300       48.63105300
  |   16: Species C            10.19258000       12.41511300       46.99324700
  |   17: Species C            12.13923300       13.60530100       47.32530900
  |   18: Species H            12.98531300       13.55868500       49.25345000
  |   19: Species H             9.36363400       12.06262700       46.37980800
  |   20: Species C            11.15083800       13.23121400       46.45146300
  |   21: Species H            12.95969600       14.24541400       47.00701100
  |   22: Species C            11.14135000       13.67434000       45.03364800
  |   23: Species C            10.16355900       13.29925300       44.13795600
  |   24: Species C            12.15151100       14.48587300       44.55958700
  |   25: Species H             9.34320800       12.65681100       44.45559900
  |   26: Species C            10.17248900       13.72296700       42.82500300
  |   27: Species C            12.16044100       14.90958700       43.24663300
  |   28: Species H            12.96304500       14.81581200       45.20230000
  |   29: Species H             9.36095500       13.39302900       42.18228900
  |   30: Species C            11.18265000       14.53450100       42.35094100
  |   31: Species H            12.98079200       15.55203000       42.92899000
  |   32: Species C            11.17316200       14.97762600       40.93312600
  |   33: Species C            10.18476700       14.60354000       40.05928000
  |   34: Species C            12.13142000       15.79372800       40.39134200
  |   35: Species H             9.36430400       13.96342700       40.37757900
  |   36: Species C            10.17137300       14.99992000       38.73977300
  |   37: Species C            12.12528100       16.19414200       39.07183400
  |   38: Species H            12.96036600       16.14621400       41.00478200
  |   39: Species H             9.33868700       14.65015500       38.13113900
  |   40: Species C            11.13856000       15.81198600       38.19798900
  |   41: Species H            12.94490600       16.83457800       38.75353600
  |   42: Species C            11.15809300       16.25803600       36.78235800
  |   43: Species C            10.17918600       15.84794500       35.88885100
  |   44: Species C            12.15988300       17.09499300       36.29955800
  |   45: Species H             9.37423800       15.19229400       36.21501400
  |   46: Species C            10.19146400       16.25602900       34.56060500
  |   47: Species C            12.17048700       17.49409700       34.97786600
  |   48: Species H            12.95657100       17.44842300       36.94860700
  |   49: Species H             9.40571500       15.90798500       33.89080200
  |   50: Species C            11.19827700       17.07754400       34.10183600
  |   51: Species H            12.96946300       18.15385900       34.64012500
  |   52: Species H            11.22450700       17.38958800       33.05824500
  |

  | The smallest distance between any two atoms is         1.08652068 AA.
  |
  | The first atom of this pair is atom number                     24 .
  | The second atom of this pair is atom number                    28 .

  Number of empty states per atom not set in control.in - providing a guess from actual geometry.
  | Total number of empty states used during s.c.f. cycle:      123
  If you use a very high smearing, use empty_states (per atom!) in control.in to increase this value.

  Structure-dependent array size parameters: 
  | Maximum number of distinct radial functions  :       18
  | Maximum number of basis functions            :     1500
  | Number of Kohn-Sham states (occupied + empty):      224
------------------------------------------------------------

------------------------------------------------------------
          Preparing all fixed parts of the calculation.
------------------------------------------------------------
  Determining machine precision:
    2.225073858507201E-308
  Setting up grids for atomic and cluster calculations.

  Creating wave function, potential, and density for free atoms.

  Species: H

  List of occupied orbitals and eigenvalues:
    n    l              occ      energy [Ha]    energy [eV]
    1    0           1.0000        -0.238386        -6.4868


  Species: C

  List of occupied orbitals and eigenvalues:
    n    l              occ      energy [Ha]    energy [eV]
    1    0           2.0000       -10.049212      -273.4530
    2    0           2.0000        -0.504761       -13.7352
    2    1           2.0000        -0.193631        -5.2690

  Creating fixed part of basis set: Ionic, confined, hydrogenic.
 
  H                    hydrogenic:
 
  List of hydrogenic basis orbitals: 
    n    l      effective z      eigenvalue [eV]  inner max. [A]     outer max. [A]     outer radius [A]   
    2    0         2.100000       -14.9965           0.193243           1.317208           5.373006
    2    1         3.500000       -41.6672           0.602369           0.602369           4.056063
    1    0         0.850000        -9.8292           0.624871           0.624871           5.373006
    2    1         3.700000       -46.5653           0.573622           0.573622           3.910002
    2    0         1.200000        -4.5995           0.334980           2.228188           5.505995
    3    2         7.000000       -74.0753           0.680699           0.680699           3.769201
 
 
  C                    hydrogenic:
 
  List of hydrogenic basis orbitals: 
    n    l      effective z      eigenvalue [eV]  inner max. [A]     outer max. [A]     outer radius [A]   
    2    1         1.700000        -9.8152           1.245706           1.245706           5.401630
    3    2         6.000000       -54.4226           0.792453           0.792453           4.178599
    2    0         4.900000       -81.6681           0.082559           0.562749           3.353238
    4    3         9.800000       -81.6681           0.863254           0.863254           4.028125
    3    1         5.200000       -40.8774           0.305389           1.215618           4.898362
    3    0         4.300000       -27.9508           0.091041           1.610311           5.401630
    5    4        14.400000      -112.8510           0.917666           0.917666           3.883070
    3    2         6.200000       -58.1113           0.763917           0.763917           4.077671
 

  Adding cutoff potential to free-atom effective potential.
  Creating atomic-like basis functions for current effective potential.

  Species H                   :

  List of atomic basis orbitals and eigenvalues:
    n    l      energy [Ha]    energy [eV]    outer radius [A]
    1    0        -0.238386        -6.4868       5.373006


  Species C                   :

  List of atomic basis orbitals and eigenvalues:
    n    l      energy [Ha]    energy [eV]    outer radius [A]
    1    0       -10.049212      -273.4530       1.934409
    2    0        -0.504761       -13.7352       5.271162
    2    1        -0.193631        -5.2690       5.401630

  Assembling full basis from fixed parts.
  | Species H :   atomic orbital   1 s accepted.
  | Species H :    hydro orbital   2 s accepted.
  | Species H :    hydro orbital   1 s accepted.
  | Species H :    hydro orbital   2 s accepted.
  | Species H :    hydro orbital   2 p accepted.
  | Species H :    hydro orbital   2 p accepted.
  | Species H :    hydro orbital   3 d accepted.
  | Species C :   atomic orbital   1 s accepted.
  | Species C :    hydro orbital   2 s accepted.
  | Species C :   atomic orbital   2 s accepted.
  | Species C :    hydro orbital   3 s accepted.
  | Species C :    hydro orbital   3 p accepted.
  | Species C :   atomic orbital   2 p accepted.
  | Species C :    hydro orbital   2 p accepted.
  | Species C :    hydro orbital   3 d accepted.
  | Species C :    hydro orbital   3 d accepted.
  | Species C :    hydro orbital   4 f accepted.
  | Species C :    hydro orbital   5 g accepted.
 
  Basis size parameters after reduction:
  | Total number of radial functions:       18
  | Total number of basis functions :     1500
 
  Per-task memory consumption for arrays in subroutine allocate_ext:
  |           4.448616MB.
  Testing on-site integration grid accuracy.
  |  Species  Function  <phi|h_atom|phi> (log., in eV)  <phi|h_atom|phi> (rad., in eV)
           1        1                 -6.4870767962                 -6.4871688290
           1        2                 13.5032046589                 13.5028982997
           1        3                 32.8195184817                 32.8119941656
           1        4                 33.8513856511                 33.7670005767 ***
           1        5                 28.8544614965                 28.8544615203
           1        6                 59.6326952547                 59.6327656460
           1        7                 60.2719308513                 60.2719305949
           2        8               -273.4529726040               -273.4529710464
           2        9                -10.7721037319                -10.7721022101
           2       10                 17.6044132601                 17.6044162063
           2       11                 53.7706460658                 53.7706913770
           2       12                 15.0973290362                 15.0973256030
           2       13                  3.8545134692                  3.8545724687
           2       14                 12.1156992592                 12.1182024431
           2       15                 29.4352039302                 29.4352041816
           2       16                 54.8741144708                 54.8740268729
           2       17                 59.3556032049                 59.3556031382
           2       18                 93.4551837154                 93.4551838009
 * Note: Onsite integrals marked "***" above are less accurate than
 * onsite_accuracy_threshold =    0.03000 eV. Usually, this is harmless.
 * When in doubt, tighten the "radial" and/or "radial_multiplier" flags to check.

  Preparing densities etc. for the partition functions (integrals / Hartree potential).

  Preparations completed.
  max(cpu_time)          :      0.216 s.
  Wall clock time (cpu1) :      0.225 s.
------------------------------------------------------------

------------------------------------------------------------
          Begin self-consistency loop: Initialization.

          Date     :  20210620, Time     :  180011.996
------------------------------------------------------------

  Initializing index lists of integration centers etc. from given atomic structure:
  | Number of centers in hartree potential         :        52
  | Number of centers in hartree multipole         :        52
  | Number of centers in electron density summation:        52
  | Number of centers in basis integrals           :        52
  | Number of centers in integrals                 :        52
  | Number of centers in hamiltonian               :        52
  * Using 56 tasks for Scalapack Eigenvalue solver.
  Detailed listing of tasks and assigned k-points:
  (for non-periodic systems, the "k-point" denotes an internal label only)
   Task     0 k-point     1 on d001
   Task     1 k-point     1 on d001
   Task     2 k-point     1 on d001
   Task     3 k-point     1 on d001
   Task     4 k-point     1 on d001
   Task     5 k-point     1 on d001
   Task     6 k-point     1 on d001
   Task     7 k-point     1 on d001
   Task     8 k-point     1 on d001
   Task     9 k-point     1 on d001
   Task    10 k-point     1 on d001
   Task    11 k-point     1 on d001
   Task    12 k-point     1 on d001
   Task    13 k-point     1 on d001
   Task    14 k-point     1 on d001
   Task    15 k-point     1 on d001
   Task    16 k-point     1 on d001
   Task    17 k-point     1 on d001
   Task    18 k-point     1 on d001
   Task    19 k-point     1 on d001
   Task    20 k-point     1 on d001
   Task    21 k-point     1 on d001
   Task    22 k-point     1 on d001
   Task    23 k-point     1 on d001
   Task    24 k-point     1 on d001
   Task    25 k-point     1 on d001
   Task    26 k-point     1 on d001
   Task    27 k-point     1 on d001
   Task    28 k-point     1 on d001
   Task    29 k-point     1 on d001
   Task    30 k-point     1 on d001
   Task    31 k-point     1 on d001
   Task    32 k-point     1 on d001
   Task    33 k-point     1 on d001
   Task    34 k-point     1 on d001
   Task    35 k-point     1 on d001
   Task    36 k-point     1 on d001
   Task    37 k-point     1 on d001
   Task    38 k-point     1 on d001
   Task    39 k-point     1 on d001
   Task    40 k-point     1 on d001
   Task    41 k-point     1 on d001
   Task    42 k-point     1 on d001
   Task    43 k-point     1 on d001
   Task    44 k-point     1 on d001
   Task    45 k-point     1 on d001
   Task    46 k-point     1 on d001
   Task    47 k-point     1 on d001
   Task    48 k-point     1 on d001
   Task    49 k-point     1 on d001
   Task    50 k-point     1 on d001
   Task    51 k-point     1 on d001
   Task    52 k-point     1 on d001
   Task    53 k-point     1 on d001
   Task    54 k-point     1 on d001
   Task    55 k-point     1 on d001
  Tasks:    56 split into      8 X      7 BLACS grid
  Calculating block size based on n_basis =         1500 max_nprow =            8 max_npcol =            7
  ScaLAPACK block size set to:           16
  Allocating        0.344 MB for ovlp
  Allocating        0.344 MB for ham
  Allocating        0.344 MB for eigenvec
  Required Scalapack workspace - INTEGER:            1 REAL:             1
  Partitioning the integration grid into batches with parallel hashing+maxmin method.
  | Number of batches:     8997
  | Maximal batch size:     200
  | Minimal batch size:      10
  | Average batch size:      95.614
  | Standard deviation of batch sizes:      30.778

  Integration load balanced across     56 MPI tasks.
  Work distribution over tasks is as follows:
  Task      0 has      15393 integration points.
  Task      1 has      15416 integration points.
  Task      2 has      15363 integration points.
  Task      3 has      15399 integration points.
  Task      4 has      15331 integration points.
  Task      5 has      15389 integration points.
  Task      6 has      15325 integration points.
  Task      7 has      15383 integration points.
  Task      8 has      15428 integration points.
  Task      9 has      15331 integration points.
  Task     10 has      15374 integration points.
  Task     11 has      15311 integration points.
  Task     12 has      15372 integration points.
  Task     13 has      15286 integration points.
  Task     14 has      15421 integration points.
  Task     15 has      15395 integration points.
  Task     16 has      15297 integration points.
  Task     17 has      15402 integration points.
  Task     18 has      15394 integration points.
  Task     19 has      15417 integration points.
  Task     20 has      15262 integration points.
  Task     21 has      15436 integration points.
  Task     22 has      15409 integration points.
  Task     23 has      15294 integration points.
  Task     24 has      15387 integration points.
  Task     25 has      15315 integration points.
  Task     26 has      15339 integration points.
  Task     27 has      15289 integration points.
  Task     28 has      15501 integration points.
  Task     29 has      15414 integration points.
  Task     30 has      15313 integration points.
  Task     31 has      15442 integration points.
  Task     32 has      15324 integration points.
  Task     33 has      15393 integration points.
  Task     34 has      15312 integration points.
  Task     35 has      15407 integration points.
  Task     36 has      15393 integration points.
  Task     37 has      15276 integration points.
  Task     38 has      15385 integration points.
  Task     39 has      15317 integration points.
  Task     40 has      15431 integration points.
  Task     41 has      15209 integration points.
  Task     42 has      15414 integration points.
  Task     43 has      15405 integration points.
  Task     44 has      15338 integration points.
  Task     45 has      15450 integration points.
  Task     46 has      15336 integration points.
  Task     47 has      15405 integration points.
  Task     48 has      15260 integration points.
  Task     49 has      15411 integration points.
  Task     50 has      15382 integration points.
  Task     51 has      15293 integration points.
  Task     52 has      15430 integration points.
  Task     53 has      15261 integration points.
  Task     54 has      15366 integration points.
  Task     55 has      15214 integration points.
  Initializing partition tables, free-atom densities, potentials, etc. across the integration grid (initialize_grid_storage).
  | initialize_grid_storage: Actual outermost partition radius vs. multipole_radius_free
  | (-- VB: in principle, multipole_radius_free should be larger, hence this output)
  | Species        1: Confinement radius =              6.000000000000000 AA, multipole_radius_free =              6.071692442739658 AA.
  | Species        1: outer_partition_radius set to              6.071692442739658 AA .
  | Species        2: Confinement radius =              6.000000000000000 AA, multipole_radius_free =              6.029870734432609 AA.
  | Species        2: outer_partition_radius set to              6.029870734432609 AA .
  | The sparse table of interatomic distances needs     28.1480 kbyte instead of    21.6320 kbyte of memory.
  | Using the partition_type stratmann_smoother will reduce your memory usage.
  | Net number of integration points:   860240
  | of which are non-zero points    :   692965
  Renormalizing the initial density to the exact electron count on the 3D integration grid.
  | Initial density: Formal number of electrons (from input files) :     202.0000000000
  | Integrated number of electrons on 3D grid     :     201.9994865342
  | Charge integration error                      :      -0.0005134658
  | Normalization factor for density and gradient :       1.0000025419
  Obtaining max. number of non-zero basis functions in each batch (get_n_compute_maxes).
  | Maximal number of non-zero basis functions:      648
  Selecting the method for density update.
  Loop over occupied states selected for charge density update.
  Hamiltonian matrix size:
  | Size of matrix non-packed:               1125750
  | Size of matrix packed:          717324
  Allocating        2.688 MB for KS_eigenvector
  use_local_index: Max. local matrix size =       415542
  Task:     0 matrix size:     130792
  Task:     1 matrix size:     237136
  Task:     2 matrix size:     246319
  Task:     3 matrix size:     288386
  Task:     4 matrix size:     345470
  Task:     5 matrix size:     352895
  Task:     6 matrix size:     382483
  Task:     7 matrix size:     182206
  Task:     8 matrix size:     309758
  Task:     9 matrix size:     300893
  Task:    10 matrix size:     331331
  Task:    11 matrix size:     322585
  Task:    12 matrix size:     347660
  Task:    13 matrix size:     300907
  Task:    14 matrix size:      97461
  Task:    15 matrix size:     114481
  Task:    16 matrix size:     109278
  Task:    17 matrix size:     191097
  Task:    18 matrix size:     397471
  Task:    19 matrix size:     200810
  Task:    20 matrix size:     408146
  Task:    21 matrix size:     154242
  Task:    22 matrix size:      76245
  Task:    23 matrix size:     135959
  Task:    24 matrix size:     411473
  Task:    25 matrix size:     361239
  Task:    26 matrix size:     373141
  Task:    27 matrix size:     289234
  Task:    28 matrix size:     337835
  Task:    29 matrix size:     364942
  Task:    30 matrix size:     396111
  Task:    31 matrix size:     184450
  Task:    32 matrix size:     204392
  Task:    33 matrix size:      91806
  Task:    34 matrix size:     116886
  Task:    35 matrix size:     415542
  Task:    36 matrix size:     411260
  Task:    37 matrix size:     388547
  Task:    38 matrix size:     152586
  Task:    39 matrix size:      71631
  Task:    40 matrix size:     142818
  Task:    41 matrix size:      76245
  Task:    42 matrix size:     291207
  Task:    43 matrix size:     300758
  Task:    44 matrix size:     298797
  Task:    45 matrix size:     314626
  Task:    46 matrix size:     305660
  Task:    47 matrix size:     256184
  Task:    48 matrix size:     179201
  Task:    49 matrix size:     330690
  Task:    50 matrix size:     305262
  Task:    51 matrix size:     251783
  Task:    52 matrix size:     291687
  Task:    53 matrix size:     272358
  Task:    54 matrix size:     190270
  Task:    55 matrix size:     130792
  Integrating Hamiltonian matrix: batch-based integration.
  Time summed over all CPUs for integration: real work      115.213 s, elapsed      171.669 s
  Time get_set_sparse_local_matrix_scalapack:     0.011183 s
  Start compute_balanced_batch_distribution
  Done load balancing, time needed:      0.009 s
  Integrating overlap matrix with loadbalancing
  Time summed over all CPUs for integration: real work       33.268 s, elapsed       37.008 s
  Time get_set_full_local_matrix_scalapack:     0.011284 s

  Updating Kohn-Sham eigenvalues and eigenvectors using ELSI and the ELPA eigensolver.
  Overlap matrix is not singular
  | Lowest and highest eigenvalues :  0.10E+02,  0.72E-04
  Finished singularity check of overlap matrix
  | Time :     0.226 s
  Finished Cholesky decomposition
  | Time :     0.022 s
  Finished transformation to standard eigenproblem
  | Time :     0.015 s
  Starting ELPA eigensolver
  Finished solving standard eigenproblem
  | Time :     0.095 s
  Finished back-transformation of eigenvectors
  | Time :     0.004 s

  Obtaining occupation numbers and chemical potential using ELSI.
  | Chemical potential (Fermi level):    -8.33233265 eV
  Writing Kohn-Sham eigenvalues.

  State    Occupation    Eigenvalue [Ha]    Eigenvalue [eV]
      1       2.00000         -10.177106         -276.93315
      2       2.00000         -10.177106         -276.93315
      3       2.00000         -10.176938         -276.92856
      4       2.00000         -10.176938         -276.92856
      5       2.00000         -10.176479         -276.91608
      6       2.00000         -10.176479         -276.91608
      7       2.00000         -10.176226         -276.90920
      8       2.00000         -10.176226         -276.90920
      9       2.00000         -10.175595         -276.89204
     10       2.00000         -10.175595         -276.89204
     11       2.00000         -10.175471         -276.88865
     12       2.00000         -10.175454         -276.88820
     13       2.00000         -10.175069         -276.87772
     14       2.00000         -10.175069         -276.87772
     15       2.00000         -10.174964         -276.87485
     16       2.00000         -10.174945         -276.87434
     17       2.00000         -10.173049         -276.82275
     18       2.00000         -10.173049         -276.82275
     19       2.00000         -10.173022         -276.82202
     20       2.00000         -10.173022         -276.82201
     21       2.00000         -10.172452         -276.80651
     22       2.00000         -10.172452         -276.80651
     23       2.00000         -10.172047         -276.79548
     24       2.00000         -10.172047         -276.79548
     25       2.00000         -10.171735         -276.78700
     26       2.00000         -10.171735         -276.78699
     27       2.00000         -10.169845         -276.73558
     28       2.00000         -10.169844         -276.73553
     29       2.00000         -10.166554         -276.64602
     30       2.00000         -10.166554         -276.64602
     31       2.00000          -1.022607          -27.82655
     32       2.00000          -1.018036          -27.70216
     33       2.00000          -1.006978          -27.40126
     34       2.00000          -0.999604          -27.20061
     35       2.00000          -0.995331          -27.08432
     36       2.00000          -0.941029          -25.60669
     37       2.00000          -0.925062          -25.17222
     38       2.00000          -0.900765          -24.51106
     39       2.00000          -0.897503          -24.42229
     40       2.00000          -0.894168          -24.33154
     41       2.00000          -0.890082          -24.22038
     42       2.00000          -0.886159          -24.11363
     43       2.00000          -0.884255          -24.06180
     44       2.00000          -0.879791          -23.94034
     45       2.00000          -0.862285          -23.46398
     46       2.00000          -0.793591          -21.59472
     47       2.00000          -0.779594          -21.21382
     48       2.00000          -0.772799          -21.02893
     49       2.00000          -0.768982          -20.92507
     50       2.00000          -0.754026          -20.51809
     51       2.00000          -0.750255          -20.41547
     52       2.00000          -0.738586          -20.09795
     53       2.00000          -0.734716          -19.99264
     54       2.00000          -0.727857          -19.80600
     55       2.00000          -0.724835          -19.72377
     56       2.00000          -0.689413          -18.75989
     57       2.00000          -0.680282          -18.51141
     58       2.00000          -0.666303          -18.13104
     59       2.00000          -0.661722          -18.00636
     60       2.00000          -0.646551          -17.59356
     61       2.00000          -0.645474          -17.56425
     62       2.00000          -0.627954          -17.08749
     63       2.00000          -0.616569          -16.77770
     64       2.00000          -0.615110          -16.73799
     65       2.00000          -0.609299          -16.57987
     66       2.00000          -0.607327          -16.52621
     67       2.00000          -0.591291          -16.08985
     68       2.00000          -0.588838          -16.02310
     69       2.00000          -0.581673          -15.82812
     70       2.00000          -0.576119          -15.67699
     71       2.00000          -0.571854          -15.56095
     72       2.00000          -0.570657          -15.52837
     73       2.00000          -0.566880          -15.42559
     74       2.00000          -0.563351          -15.32957
     75       2.00000          -0.558334          -15.19303
     76       2.00000          -0.556108          -15.13247
     77       2.00000          -0.553047          -15.04918
     78       2.00000          -0.535409          -14.56921
     79       2.00000          -0.533741          -14.52382
     80       2.00000          -0.529053          -14.39626
     81       2.00000          -0.518083          -14.09774
     82       2.00000          -0.517237          -14.07472
     83       2.00000          -0.513857          -13.98277
     84       2.00000          -0.507186          -13.80122
     85       2.00000          -0.506177          -13.77378
     86       2.00000          -0.505079          -13.74390
     87       2.00000          -0.504228          -13.72074
     88       2.00000          -0.496087          -13.49920
     89       2.00000          -0.495974          -13.49615
     90       2.00000          -0.485076          -13.19959
     91       2.00000          -0.478553          -13.02210
     92       2.00000          -0.455875          -12.40499
     93       2.00000          -0.435335          -11.84608
     94       2.00000          -0.410398          -11.16749
     95       2.00000          -0.408970          -11.12863
     96       2.00000          -0.408365          -11.11218
     97       2.00000          -0.405827          -11.04311
     98       2.00000          -0.403660          -10.98414
     99       2.00000          -0.402837          -10.96175
    100       2.00000          -0.385610          -10.49298
    101       2.00000          -0.366690           -9.97813
    102       0.00000          -0.257450           -7.00556
    103       0.00000          -0.235412           -6.40590
    104       0.00000          -0.222205           -6.04651
    105       0.00000          -0.216981           -5.90436
    106       0.00000          -0.210230           -5.72064
    107       0.00000          -0.206356           -5.61523
    108       0.00000          -0.203002           -5.52395
    109       0.00000          -0.197989           -5.38755
    110       0.00000          -0.175163           -4.76641
    111       0.00000          -0.147251           -4.00690
    112       0.00000          -0.091717           -2.49575
    113       0.00000          -0.079188           -2.15481
    114       0.00000          -0.077354           -2.10490
    115       0.00000          -0.071894           -1.95634
    116       0.00000          -0.070135           -1.90847
    117       0.00000          -0.067442           -1.83519
    118       0.00000          -0.063423           -1.72583
    119       0.00000          -0.057202           -1.55654
    120       0.00000          -0.050619           -1.37741
    121       0.00000          -0.046453           -1.26406
    122       0.00000          -0.042531           -1.15732
    123       0.00000          -0.028945           -0.78765
    124       0.00000          -0.028486           -0.77515
    125       0.00000          -0.023814           -0.64802
    126       0.00000          -0.021942           -0.59707
    127       0.00000          -0.016795           -0.45701
    128       0.00000          -0.015472           -0.42101
    129       0.00000          -0.011267           -0.30660
    130       0.00000          -0.010034           -0.27304
    131       0.00000          -0.008952           -0.24360
    132       0.00000          -0.003919           -0.10663
    133       0.00000           0.000026            0.00070
    134       0.00000           0.007170            0.19510
    135       0.00000           0.011180            0.30422
    136       0.00000           0.012718            0.34607
    137       0.00000           0.016720            0.45499
    138       0.00000           0.020908            0.56894
    139       0.00000           0.027289            0.74258
    140       0.00000           0.027758            0.75533
    141       0.00000           0.029827            0.81162
    142       0.00000           0.030771            0.83731
    143       0.00000           0.036889            1.00381
    144       0.00000           0.037096            1.00942
    145       0.00000           0.039330            1.07021
    146       0.00000           0.039498            1.07481
    147       0.00000           0.046143            1.25562
    148       0.00000           0.046681            1.27026
    149       0.00000           0.046875            1.27554
    150       0.00000           0.048536            1.32073
    151       0.00000           0.057177            1.55587
    152       0.00000           0.059636            1.62278
    153       0.00000           0.060392            1.64335
    154       0.00000           0.066079            1.79810
    155       0.00000           0.069885            1.90166
    156       0.00000           0.071115            1.93513
    157       0.00000           0.074838            2.03644
    158       0.00000           0.075769            2.06179
    159       0.00000           0.076756            2.08863
    160       0.00000           0.083842            2.28145
    161       0.00000           0.086093            2.34270
    162       0.00000           0.088177            2.39943
    163       0.00000           0.088420            2.40604
    164       0.00000           0.089817            2.44403
    165       0.00000           0.094550            2.57284
    166       0.00000           0.098306            2.67503
    167       0.00000           0.103067            2.80461
    168       0.00000           0.107582            2.92745
    169       0.00000           0.109089            2.96846
    170       0.00000           0.111744            3.04071
    171       0.00000           0.112490            3.06102
    172       0.00000           0.115845            3.15229
    173       0.00000           0.116959            3.18261
    174       0.00000           0.117460            3.19625
    175       0.00000           0.120386            3.27588
    176       0.00000           0.121925            3.31775
    177       0.00000           0.127299            3.46397
    178       0.00000           0.129456            3.52267
    179       0.00000           0.133887            3.64326
    180       0.00000           0.134739            3.66644
    181       0.00000           0.137201            3.73342
    182       0.00000           0.140006            3.80975
    183       0.00000           0.147691            4.01887
    184       0.00000           0.148700            4.04633
    185       0.00000           0.150990            4.10864
    186       0.00000           0.151583            4.12478
    187       0.00000           0.156111            4.24799
    188       0.00000           0.160797            4.37552
    189       0.00000           0.161131            4.38461
    190       0.00000           0.168416            4.58283
    191       0.00000           0.168461            4.58405
    192       0.00000           0.169579            4.61448
    193       0.00000           0.172588            4.69635
    194       0.00000           0.174725            4.75451
    195       0.00000           0.175664            4.78006
    196       0.00000           0.176298            4.79730
    197       0.00000           0.177237            4.82285
    198       0.00000           0.184491            5.02025
    199       0.00000           0.184985            5.03370
    200       0.00000           0.188576            5.13142
    201       0.00000           0.190664            5.18822
    202       0.00000           0.195863            5.32971
    203       0.00000           0.203803            5.54576
    204       0.00000           0.205059            5.57995
    205       0.00000           0.205841            5.60121
    206       0.00000           0.206371            5.61564
    207       0.00000           0.207314            5.64129
    208       0.00000           0.210238            5.72086
    209       0.00000           0.211540            5.75628
    210       0.00000           0.218070            5.93399
    211       0.00000           0.220104            5.98935
    212       0.00000           0.221320            6.02241
    213       0.00000           0.223082            6.07037
    214       0.00000           0.224257            6.10235
    215       0.00000           0.230812            6.28071
    216       0.00000           0.232544            6.32785
    217       0.00000           0.235047            6.39596
    218       0.00000           0.236543            6.43667
    219       0.00000           0.238717            6.49581
    220       0.00000           0.241365            6.56788
    221       0.00000           0.245591            6.68287
    222       0.00000           0.246615            6.71074
    223       0.00000           0.246813            6.71612
    224       0.00000           0.264836            7.20656

  Highest occupied state (VBM) at     -9.97812935 eV
  | Occupation number:      2.00000000

  Lowest unoccupied state (CBM) at    -7.00555756 eV
  | Occupation number:      0.00000000

  Overall HOMO-LUMO gap:      2.97257178 eV.
  Calculating total energy contributions from superposition of free atom densities.

  Total energy components:
  | Sum of eigenvalues            :        -702.63085427 Ha      -19119.55833720 eV
  | XC energy correction          :        -166.68594652 Ha       -4535.75538147 eV
  | XC potential correction       :         214.11415012 Ha        5826.34246568 eV
  | Free-atom electrostatic energy:        -502.28552885 Ha      -13667.88465421 eV
  | Hartree energy correction     :           0.00000000 Ha           0.00000000 eV
  | Entropy correction            :           0.00000000 Ha           0.00000000 eV
  | ---------------------------
  | Total energy                  :       -1157.48817952 Ha      -31496.85590720 eV
  | Total energy, T -> 0          :       -1157.48817952 Ha      -31496.85590720 eV  <-- do not rely on this value for anything but (periodic) metals
  | Electronic free energy        :       -1157.48817952 Ha      -31496.85590720 eV

  Derived energy quantities:
  | Kinetic energy                :        1145.92682151 Ha       31182.25534908 eV
  | Electrostatic energy          :       -2136.72905452 Ha      -58143.35587481 eV
  | Energy correction for multipole
  | error in Hartree potential    :           0.00000000 Ha           0.00000000 eV
  | Sum of eigenvalues per atom                           :        -367.68381418 eV
  | Total energy (T->0) per atom                          :        -605.70876745 eV  <-- do not rely on this value for anything but (periodic) metals
  | Electronic free energy per atom                       :        -605.70876745 eV
  Initialize hartree_potential_storage
  Max. number of atoms included in rho_multipole:           52

  End scf initialization - timings             :  max(cpu_time)    wall_clock(cpu1)
  | Time for scf. initialization               :        5.345 s           5.724 s
  | Boundary condition initialization          :        0.001 s           0.030 s
  | Integration                                :        3.769 s           3.780 s
  | Solution of K.-S. eqns.                    :        0.278 s           0.435 s
  | Grid partitioning                          :        0.702 s           0.709 s
  | Preloading free-atom quantities on grid    :        0.025 s           0.051 s
  | Free-atom superposition energy             :        0.077 s           0.082 s
  | Total energy evaluation                    :        0.001 s           0.037 s

  Partial memory accounting:
  | Current value for overall tracked memory usage on task 0  :           4.244 MB
  | Peak value for overall tracked memory usage on task 0     :          17.996 MB after allocating zora_vector2
  | Largest tracked array allocation on task 0 so far         :           3.359 MB  when allocating hamiltonian_shell
  Note:  These values currently only include a subset of arrays which are explicitly tracked.
  The "true" memory usage will be greater.
------------------------------------------------------------

------------------------------------------------------------
          Begin self-consistency iteration #    1

  Date     :  20210620, Time     :  180017.740
------------------------------------------------------------
  Evaluating new KS density.
  Integration grid: deviation in total charge (<rho> - N_e) =   1.705303E-13
  Pulay mixing of updated and previous charge densities.

  Evaluating partitioned Hartree potential by multipole expansion.
  | Analytical far-field extrapolation by fixed multipoles:
  | Hartree multipole sum: apparent total charge =  -0.522963E-03
  Summing up the Hartree potential with load balancing.
  Time summed over all CPUs for potential: real work       29.440 s, elapsed       39.721 s
  | RMS charge density error from multipole expansion :   0.136908E-01

  Start compute_balanced_batch_distribution
  Done load balancing, time needed:      0.008 s
  Integrating Hamiltonian matrix: batch-based integration with load balancing
  Time summed over all CPUs for integration: real work      122.623 s, elapsed      132.939 s
  Time get_set_full_local_matrix_scalapack:     0.011501 s
  Start compute_balanced_batch_distribution
  Done load balancing, time needed:      0.008 s

  Updating Kohn-Sham eigenvalues and eigenvectors using ELSI and the ELPA eigensolver.
  Finished transformation to standard eigenproblem
  | Time :     0.017 s
  Starting ELPA eigensolver
  Finished solving standard eigenproblem
  | Time :     0.089 s
  Finished back-transformation of eigenvectors
  | Time :     0.004 s

  Obtaining occupation numbers and chemical potential using ELSI.
  | Chemical potential (Fermi level):    -3.92464910 eV
  Writing Kohn-Sham eigenvalues.

  State    Occupation    Eigenvalue [Ha]    Eigenvalue [eV]
      1       2.00000          -9.974247         -271.41306
      2       2.00000          -9.974247         -271.41306
      3       2.00000          -9.973916         -271.40407
      4       2.00000          -9.973916         -271.40407
      5       2.00000          -9.971086         -271.32707
      6       2.00000          -9.971086         -271.32706
      7       2.00000          -9.970829         -271.32007
      8       2.00000          -9.970829         -271.32007
      9       2.00000          -9.949242         -270.73264
     10       2.00000          -9.949237         -270.73251
     11       2.00000          -9.948732         -270.71878
     12       2.00000          -9.948729         -270.71868
     13       2.00000          -9.945956         -270.64323
     14       2.00000          -9.945956         -270.64322
     15       2.00000          -9.945732         -270.63714
     16       2.00000          -9.945732         -270.63713
     17       2.00000          -9.945626         -270.63426
     18       2.00000          -9.945626         -270.63426
     19       2.00000          -9.945071         -270.61916
     20       2.00000          -9.945071         -270.61916
     21       2.00000          -9.944623         -270.60696
     22       2.00000          -9.944623         -270.60695
     23       2.00000          -9.944151         -270.59412
     24       2.00000          -9.944151         -270.59412
     25       2.00000          -9.942441         -270.54757
     26       2.00000          -9.942440         -270.54757
     27       2.00000          -9.939193         -270.45921
     28       2.00000          -9.939193         -270.45921
     29       2.00000          -9.938167         -270.43129
     30       2.00000          -9.938167         -270.43129
     31       2.00000          -0.865441          -23.54985
     32       2.00000          -0.858778          -23.36854
     33       2.00000          -0.848385          -23.08574
     34       2.00000          -0.836649          -22.76637
     35       2.00000          -0.830123          -22.58879
     36       2.00000          -0.790530          -21.51142
     37       2.00000          -0.770793          -20.97435
     38       2.00000          -0.748287          -20.36193
     39       2.00000          -0.746260          -20.30676
     40       2.00000          -0.742687          -20.20953
     41       2.00000          -0.738407          -20.09308
     42       2.00000          -0.731958          -19.91758
     43       2.00000          -0.729821          -19.85945
     44       2.00000          -0.721870          -19.64309
     45       2.00000          -0.701388          -19.08574
     46       2.00000          -0.644420          -17.53557
     47       2.00000          -0.640297          -17.42338
     48       2.00000          -0.627052          -17.06295
     49       2.00000          -0.622943          -16.95115
     50       2.00000          -0.611452          -16.63847
     51       2.00000          -0.602587          -16.39723
     52       2.00000          -0.593427          -16.14798
     53       2.00000          -0.587452          -15.98539
     54       2.00000          -0.581161          -15.81420
     55       2.00000          -0.580025          -15.78329
     56       2.00000          -0.558386          -15.19445
     57       2.00000          -0.546782          -14.87869
     58       2.00000          -0.530711          -14.44139
     59       2.00000          -0.506623          -13.78592
     60       2.00000          -0.500235          -13.61209
     61       2.00000          -0.494441          -13.45441
     62       2.00000          -0.488300          -13.28732
     63       2.00000          -0.483296          -13.15115
     64       2.00000          -0.467641          -12.72517
     65       2.00000          -0.466376          -12.69073
     66       2.00000          -0.465604          -12.66972
     67       2.00000          -0.452176          -12.30434
     68       2.00000          -0.449638          -12.23526
     69       2.00000          -0.446926          -12.16149
     70       2.00000          -0.446120          -12.13955
     71       2.00000          -0.440812          -11.99510
     72       2.00000          -0.440399          -11.98387
     73       2.00000          -0.439733          -11.96574
     74       2.00000          -0.433700          -11.80158
     75       2.00000          -0.421887          -11.48012
     76       2.00000          -0.415408          -11.30383
     77       2.00000          -0.408983          -11.12901
     78       2.00000          -0.408109          -11.10522
     79       2.00000          -0.401251          -10.91859
     80       2.00000          -0.389866          -10.60881
     81       2.00000          -0.388670          -10.57624
     82       2.00000          -0.385116          -10.47954
     83       2.00000          -0.375919          -10.22928
     84       2.00000          -0.375432          -10.21602
     85       2.00000          -0.369753          -10.06150
     86       2.00000          -0.363770           -9.89870
     87       2.00000          -0.363724           -9.89743
     88       2.00000          -0.360889           -9.82029
     89       2.00000          -0.359693           -9.78775
     90       2.00000          -0.350232           -9.53029
     91       2.00000          -0.343319           -9.34218
     92       2.00000          -0.329260           -8.95961
     93       2.00000          -0.306042           -8.32782
     94       2.00000          -0.281720           -7.66598
     95       2.00000          -0.279144           -7.59588
     96       2.00000          -0.277429           -7.54922
     97       2.00000          -0.275353           -7.49274
     98       2.00000          -0.271317           -7.38290
     99       2.00000          -0.270336           -7.35622
    100       2.00000          -0.253222           -6.89052
    101       2.00000          -0.233263           -6.34741
    102       0.00000          -0.132167           -3.59646
    103       0.00000          -0.108646           -2.95642
    104       0.00000          -0.101251           -2.75518
    105       0.00000          -0.092845           -2.52643
    106       0.00000          -0.084384           -2.29619
    107       0.00000          -0.079778           -2.17086
    108       0.00000          -0.072576           -1.97489
    109       0.00000          -0.065686           -1.78740
    110       0.00000          -0.047512           -1.29287
    111       0.00000          -0.034472           -0.93804
    112       0.00000          -0.030722           -0.83600
    113       0.00000          -0.024454           -0.66542
    114       0.00000          -0.022462           -0.61122
    115       0.00000          -0.019354           -0.52665
    116       0.00000          -0.015411           -0.41934
    117       0.00000          -0.014843           -0.40389
    118       0.00000          -0.004030           -0.10966
    119       0.00000          -0.002886           -0.07852
    120       0.00000           0.008328            0.22662
    121       0.00000           0.010565            0.28750
    122       0.00000           0.021059            0.57305
    123       0.00000           0.028399            0.77278
    124       0.00000           0.030189            0.82149
    125       0.00000           0.030886            0.84044
    126       0.00000           0.040335            1.09758
    127       0.00000           0.051937            1.41327
    128       0.00000           0.054216            1.47530
    129       0.00000           0.055449            1.50885
    130       0.00000           0.061318            1.66856
    131       0.00000           0.063318            1.72296
    132       0.00000           0.064787            1.76295
    133       0.00000           0.073549            2.00138
    134       0.00000           0.077835            2.11800
    135       0.00000           0.085462            2.32554
    136       0.00000           0.086170            2.34482
    137       0.00000           0.087011            2.36768
    138       0.00000           0.089207            2.42744
    139       0.00000           0.094093            2.56040
    140       0.00000           0.097313            2.64803
    141       0.00000           0.103673            2.82108
    142       0.00000           0.105091            2.85968
    143       0.00000           0.107261            2.91871
    144       0.00000           0.110706            3.01246
    145       0.00000           0.111503            3.03414
    146       0.00000           0.116028            3.15730
    147       0.00000           0.118205            3.21652
    148       0.00000           0.118809            3.23297
    149       0.00000           0.118943            3.23660
    150       0.00000           0.120513            3.27932
    151       0.00000           0.124010            3.37450
    152       0.00000           0.125119            3.40466
    153       0.00000           0.129126            3.51369
    154       0.00000           0.135521            3.68772
    155       0.00000           0.137419            3.73936
    156       0.00000           0.139268            3.78969
    157       0.00000           0.140754            3.83010
    158       0.00000           0.142457            3.87644
    159       0.00000           0.142457            3.87645
    160       0.00000           0.143526            3.90554
    161       0.00000           0.151764            4.12971
    162       0.00000           0.153886            4.18746
    163       0.00000           0.159787            4.34802
    164       0.00000           0.160711            4.37317
    165       0.00000           0.162136            4.41194
    166       0.00000           0.163115            4.43858
    167       0.00000           0.166657            4.53495
    168       0.00000           0.167199            4.54971
    169       0.00000           0.175226            4.76814
    170       0.00000           0.182868            4.97610
    171       0.00000           0.183832            5.00232
    172       0.00000           0.185036            5.03508
    173       0.00000           0.185094            5.03668
    174       0.00000           0.187599            5.10482
    175       0.00000           0.189322            5.15172
    176       0.00000           0.192037            5.22558
    177       0.00000           0.194433            5.29080
    178       0.00000           0.200849            5.46539
    179       0.00000           0.206077            5.60765
    180       0.00000           0.207239            5.63927
    181       0.00000           0.210731            5.73429
    182       0.00000           0.212640            5.78623
    183       0.00000           0.214318            5.83189
    184       0.00000           0.215360            5.86025
    185       0.00000           0.217847            5.92791
    186       0.00000           0.218917            5.95703
    187       0.00000           0.221225            6.01985
    188       0.00000           0.224725            6.11508
    189       0.00000           0.232724            6.33275
    190       0.00000           0.236478            6.43489
    191       0.00000           0.239152            6.50766
    192       0.00000           0.240909            6.55546
    193       0.00000           0.243172            6.61705
    194       0.00000           0.247094            6.72377
    195       0.00000           0.250960            6.82896
    196       0.00000           0.251955            6.85603
    197       0.00000           0.252260            6.86435
    198       0.00000           0.253767            6.90535
    199       0.00000           0.254156            6.91593
    200       0.00000           0.255443            6.95097
    201       0.00000           0.261912            7.12699
    202       0.00000           0.262900            7.15387
    203       0.00000           0.268306            7.30099
    204       0.00000           0.275174            7.48786
    205       0.00000           0.275808            7.50512
    206       0.00000           0.276988            7.53724
    207       0.00000           0.277158            7.54186
    208       0.00000           0.278832            7.58741
    209       0.00000           0.283020            7.70137
    210       0.00000           0.295756            8.04793
    211       0.00000           0.297605            8.09824
    212       0.00000           0.298455            8.12138
    213       0.00000           0.298666            8.12711
    214       0.00000           0.300427            8.17503
    215       0.00000           0.303752            8.26552
[...]
     54       2.00000          -0.520447          -14.16208
     55       2.00000          -0.519290          -14.13060
     56       2.00000          -0.500299          -13.61383
     57       2.00000          -0.490074          -13.33558
     58       2.00000          -0.474159          -12.90252
     59       2.00000          -0.448969          -12.21706
     60       2.00000          -0.440262          -11.98013
     61       2.00000          -0.431505          -11.74185
     62       2.00000          -0.426752          -11.61251
     63       2.00000          -0.423669          -11.52861
     64       2.00000          -0.406832          -11.07046
     65       2.00000          -0.405953          -11.04653
     66       2.00000          -0.404595          -11.00960
     67       2.00000          -0.390368          -10.62246
     68       2.00000          -0.388290          -10.56590
     69       2.00000          -0.387716          -10.55028
     70       2.00000          -0.385191          -10.48157
     71       2.00000          -0.381760          -10.38822
     72       2.00000          -0.380219          -10.34629
     73       2.00000          -0.378354          -10.29553
     74       2.00000          -0.375244          -10.21090
     75       2.00000          -0.369743          -10.06122
     76       2.00000          -0.363221           -9.88374
     77       2.00000          -0.362048           -9.85183
     78       2.00000          -0.354769           -9.65375
     79       2.00000          -0.351529           -9.56560
     80       2.00000          -0.348526           -9.48387
     81       2.00000          -0.338327           -9.20634
     82       2.00000          -0.325932           -8.86907
     83       2.00000          -0.325521           -8.85787
     84       2.00000          -0.324824           -8.83892
     85       2.00000          -0.313338           -8.52636
     86       2.00000          -0.308958           -8.40718
     87       2.00000          -0.301414           -8.20190
     88       2.00000          -0.300594           -8.17958
     89       2.00000          -0.298844           -8.13197
     90       2.00000          -0.289423           -7.87559
     91       2.00000          -0.286463           -7.79506
     92       2.00000          -0.278199           -7.57017
     93       2.00000          -0.266586           -7.25418
     94       2.00000          -0.241006           -6.55811
     95       2.00000          -0.239405           -6.51454
     96       2.00000          -0.238032           -6.47718
     97       2.00000          -0.236041           -6.42299
     98       2.00000          -0.231939           -6.31137
     99       2.00000          -0.230110           -6.26162
    100       2.00000          -0.212989           -5.79572
    101       2.00000          -0.191556           -5.21250
    102       0.00000          -0.090576           -2.46471
    103       0.00000          -0.067596           -1.83937
    104       0.00000          -0.061030           -1.66072
    105       0.00000          -0.053207           -1.44784
    106       0.00000          -0.043996           -1.19720
    107       0.00000          -0.038492           -1.04743
    108       0.00000          -0.031075           -0.84559
    109       0.00000          -0.022495           -0.61213
    110       0.00000          -0.010780           -0.29335
    111       0.00000          -0.007441           -0.20248
    112       0.00000          -0.005970           -0.16246
    113       0.00000          -0.001526           -0.04153
    114       0.00000           0.001629            0.04432
    115       0.00000           0.007420            0.20190
    116       0.00000           0.008239            0.22420
    117       0.00000           0.017948            0.48839
    118       0.00000           0.019793            0.53860
    119       0.00000           0.023030            0.62667
    120       0.00000           0.029577            0.80482
    121       0.00000           0.033515            0.91199
    122       0.00000           0.042722            1.16254
    123       0.00000           0.050312            1.36905
    124       0.00000           0.056011            1.52413
    125       0.00000           0.063198            1.71971
    126       0.00000           0.071123            1.93535
    127       0.00000           0.076843            2.09099
    128       0.00000           0.079650            2.16738
    129       0.00000           0.085149            2.31703
    130       0.00000           0.086111            2.34321
    131       0.00000           0.086770            2.36112
    132       0.00000           0.094543            2.57263
    133       0.00000           0.096667            2.63044
    134       0.00000           0.103319            2.81146
    135       0.00000           0.106711            2.90375
    136       0.00000           0.110545            3.00809
    137       0.00000           0.114775            3.12318
    138       0.00000           0.116232            3.16284
    139       0.00000           0.122880            3.34374
    140       0.00000           0.126807            3.45058
    141       0.00000           0.127853            3.47906
    142       0.00000           0.135942            3.69917
    143       0.00000           0.136780            3.72197
    144       0.00000           0.137518            3.74206
    145       0.00000           0.138334            3.76425
    146       0.00000           0.142210            3.86972
    147       0.00000           0.145349            3.95515
    148       0.00000           0.147932            4.02544
    149       0.00000           0.149762            4.07522
    150       0.00000           0.155859            4.24114
    151       0.00000           0.157670            4.29041
    152       0.00000           0.157736            4.29221
    153       0.00000           0.161087            4.38340
    154       0.00000           0.162577            4.42395
    155       0.00000           0.164899            4.48713
    156       0.00000           0.170037            4.62694
    157       0.00000           0.172987            4.70720
    158       0.00000           0.174137            4.73850
    159       0.00000           0.178105            4.84648
    160       0.00000           0.179280            4.87846
    161       0.00000           0.180302            4.90628
    162       0.00000           0.187449            5.10075
    163       0.00000           0.188133            5.11935
    164       0.00000           0.191277            5.20491
    165       0.00000           0.195870            5.32990
    166       0.00000           0.197760            5.38133
    167       0.00000           0.198047            5.38914
    168       0.00000           0.199185            5.42010
    169       0.00000           0.201424            5.48103
    170       0.00000           0.201696            5.48842
    171       0.00000           0.206835            5.62826
    172       0.00000           0.211470            5.75438
    173       0.00000           0.217097            5.90752
    174       0.00000           0.218997            5.95922
    175       0.00000           0.219486            5.97251
    176       0.00000           0.227707            6.19622
    177       0.00000           0.228089            6.20661
    178       0.00000           0.233450            6.35250
    179       0.00000           0.233665            6.35834
    180       0.00000           0.241231            6.56423
    181       0.00000           0.242097            6.58781
    182       0.00000           0.244021            6.64014
    183       0.00000           0.247017            6.72169
    184       0.00000           0.247454            6.73357
    185       0.00000           0.248460            6.76095
    186       0.00000           0.249610            6.79223
    187       0.00000           0.256563            6.98144
    188       0.00000           0.261973            7.12864
    189       0.00000           0.263048            7.15790
    190       0.00000           0.266974            7.26475
    191       0.00000           0.269500            7.33346
    192       0.00000           0.273717            7.44822
    193       0.00000           0.275597            7.49939
    194       0.00000           0.275710            7.50246
    195       0.00000           0.276859            7.53371
    196       0.00000           0.279189            7.59711
    197       0.00000           0.282301            7.68180
    198       0.00000           0.284058            7.72960
    199       0.00000           0.284714            7.74747
    200       0.00000           0.286338            7.79165
    201       0.00000           0.295371            8.03746
    202       0.00000           0.295525            8.04165
    203       0.00000           0.299467            8.14890
    204       0.00000           0.303275            8.25252
    205       0.00000           0.310522            8.44973
    206       0.00000           0.311041            8.46385
    207       0.00000           0.312454            8.50230
    208       0.00000           0.317002            8.62607
    209       0.00000           0.318885            8.67729
    210       0.00000           0.323978            8.81589
    211       0.00000           0.326291            8.87882
    212       0.00000           0.328011            8.92564
    213       0.00000           0.329274            8.96001
    214       0.00000           0.330214            8.98559
    215       0.00000           0.332789            9.05566
    216       0.00000           0.339526            9.23897
    217       0.00000           0.341578            9.29481
    218       0.00000           0.343089            9.33593
    219       0.00000           0.357601            9.73081
    220       0.00000           0.362910            9.87529
    221       0.00000           0.369513           10.05495
    222       0.00000           0.373060           10.15149
    223       0.00000           0.376867           10.25508
    224       0.00000           0.378908           10.31060

  Highest occupied state (VBM) at     -5.21250004 eV
  | Occupation number:      2.00000000

  Lowest unoccupied state (CBM) at    -2.46471096 eV
  | Occupation number:      0.00000000

  Overall HOMO-LUMO gap:      2.74778909 eV.

  Total energy components:
  | Sum of eigenvalues            :        -658.17292755 Ha      -17909.79659892 eV
  | XC energy correction          :        -170.08715901 Ha       -4628.30708228 eV
  | XC potential correction       :         218.50604775 Ha        5945.85208100 eV
  | Free-atom electrostatic energy:        -502.28552885 Ha      -13667.88465421 eV
  | Hartree energy correction     :         -43.88795940 Ha       -1194.25213824 eV
  | Entropy correction            :           0.00000000 Ha           0.00000000 eV
  | ---------------------------
  | Total energy                  :       -1155.92752705 Ha      -31454.38839264 eV
  | Total energy, T -> 0          :       -1155.92752705 Ha      -31454.38839264 eV  <-- do not rely on this value for anything but (periodic) metals
  | Electronic free energy        :       -1155.92752705 Ha      -31454.38839264 eV

  Derived energy quantities:
  | Kinetic energy                :        1153.87439028 Ha       31398.51969867 eV
  | Electrostatic energy          :       -2139.71475832 Ha      -58224.60100904 eV
  | Energy correction for multipole
  | error in Hartree potential    :          -0.13992058 Ha          -3.80743276 eV
  | Sum of eigenvalues per atom                           :        -344.41916536 eV
  | Total energy (T->0) per atom                          :        -604.89208447 eV  <-- do not rely on this value for anything but (periodic) metals
  | Electronic free energy per atom                       :        -604.89208447 eV
  End evaluation of scaled ZORA corrections.
  | Time for scaled ZORA corrections           :        3.379 s           3.390 s
------------------------------------------------------------

  Energy and forces in a compact form:
  | Total energy uncorrected      :         -0.314543883926432E+05 eV
  | Total energy corrected        :         -0.314543883926432E+05 eV  <-- do not rely on this value for anything but (periodic) metals
  | Electronic free energy        :         -0.314543883926432E+05 eV

  ------------------------------------ 
  Start decomposition of the XC Energy 
  ------------------------------------ 
  X and C from original XC functional choice 
  Hartree-Fock Energy :          0.000000000 Ha              0.000000000 eV
  X Energy            :       -163.348914238 Ha          -4444.950113001 eV
  C Energy            :         -6.738244769 Ha           -183.356969278 eV
  Total XC Energy     :       -170.087159008 Ha          -4628.307082278 eV
  ------------------------------------ 
  LDA X and C from self-consistent density 
  X Energy LDA        :       -147.936669159 Ha          -4025.561586135 eV
  C Energy LDA        :        -12.992797582 Ha           -353.552010746 eV
  ------------------------------------ 
  End decomposition of the XC Energy 
  ------------------------------------ 

------------------------------------------------------------

------------------------------------------------------------------------------
  Final output of selected total energy values:

  The following output summarizes some interesting total energy values
  at the end of a run (AFTER all relaxation, molecular dynamics, etc.).

  | Total energy of the DFT / Hartree-Fock s.c.f. calculation      :         -31454.388392643 eV
  | Final zero-broadening corrected energy (caution - metals only) :         -31454.388392643 eV
  | For reference only, the value of 1 Hartree used in FHI-aims is :             27.211384500 eV

  Before relying on these values, please be sure to understand exactly which
  total energy value is referred to by a given number. Different objects may
  all carry the same name 'total energy'. Definitions:

  Total energy of the DFT / Hartree-Fock s.c.f. calculation:
  | Note that this energy does not include ANY quantities calculated after the
  | s.c.f. cycle, in particular not ANY RPA, MP2, etc. many-body perturbation terms.
  | Scalar relativistic effects have been included in the 'scaled ZORA' approximation.

  Final zero-broadening corrected energy:
  | For metallic systems only, a broadening of the occupation numbers at the Fermi
  | level can be extrapolated back to zero broadening by an electron-gas inspired
  | formula. For all systems that are not real metals, this value can be
  | meaningless and should be avoided.

------------------------------------------------------------------------------
  Methods described in the following list of references were used in this FHI-aims run.
  If you publish the results, please make sure to cite these reference if they apply.
  FHI-aims is an academic code, and for our developers (often, Ph.D. students
  and postdocs), scientific credit in the community is essential.
  Thank you for helping us!

  For any use of FHI-aims, please cite:

    Volker Blum, Ralf Gehrke, Felix Hanke, Paula Havu, Ville Havu,
    Xinguo Ren, Karsten Reuter, and Matthias Scheffler
    'Ab initio molecular simulations with numeric atom-centered orbitals'
    Computer Physics Communications 180, 2175-2196 (2009)
    http://dx.doi.org/10.1016/j.cpc.2009.06.022


  The scalable eigensolver library ELPA was used in your run.
  ELPA is essential especially for large systems on hundreds or thousands of CPUs.
  For ELPA, please cite:

    Andreas Marek, Volker Blum, Rainer Johanni, Ville Havu, Bruno Lang,
    Thomas Auckenthaler, Alexander Heinecke, Hans-Joachim Bungartz, and Hermann Lederer,
    'The ELPA Library - Scalable Parallel Eigenvalue Solutions
    for Electronic Structure Theory and Computational Science'
    The Journal of Physics: Condensed Matter 26, 213201 (2014).
    http://dx.doi.org/10.1088/0953-8984/26/21/213201


  The ELSI infrastructure was used in your run to solve the Kohn-Sham electronic structure.
  Please check out http://elsi-interchange.org to learn more.
  If scalability is important for your project, please acknowledge ELSI by citing:

    V. W-z. Yu, F. Corsetti, A. Garcia, W. P. Huhn, M. Jacquelin, W. Jia,
    B. Lange, L. Lin, J. Lu, W. Mi, A. Seifitokaldani, A. Vazquez-Mayagoitia,
    C. Yang, H. Yang, and V. Blum
    'ELSI: A unified software interface for Kohn-Sham electronic structure solvers'
    Computer Physics Communications 222, 267-285 (2018).
    http://dx.doi.org/10.1016/j.cpc.2017.09.007


  For the real-space grid partitioning and parallelization used in this calculation, please cite:

    Ville Havu, Volker Blum, Paula Havu, and Matthias Scheffler,
    'Efficient O(N) integration for all-electron electronic structure calculation'
    'using numerically tabulated basis functions'
    Journal of Computational Physics 228, 8367-8379 (2009).
    http://dx.doi.org/10.1016/j.jcp.2009.08.008

  Of course, there are many other important community references, e.g., those cited in the
  above references. Our list is limited to references that describe implementations in the
  FHI-aims code. The reason is purely practical (length of this list) - please credit others as well.

------------------------------------------------------------
          Leaving FHI-aims.
          Date     :  20210620, Time     :  180122.028

          Computational steps:
          | Number of self-consistency cycles          :           15
          | Number of SCF (re)initializations          :            1

          Detailed time accounting                     :  max(cpu_time)    wall_clock(cpu1)
          | Total time                                 :       69.761 s          71.030 s
          | Preparation time                           :        0.216 s           0.225 s
          | Boundary condition initalization           :        0.001 s           0.030 s
          | Grid partitioning                          :        0.702 s           0.709 s
          | Preloading free-atom quantities on grid    :        0.025 s           0.051 s
          | Free-atom superposition energy             :        0.077 s           0.082 s
          | Total time for integrations                :       38.164 s          38.172 s
          | Total time for solution of K.-S. equations :        2.433 s           2.598 s
          | Total time for density update              :       15.125 s          15.118 s
          | Total time for mixing                      :        0.126 s           0.203 s
          | Total time for Hartree multipole update    :        0.150 s           0.172 s
          | Total time for Hartree multipole sum       :        8.576 s           8.621 s
          | Total time for total energy evaluation     :        0.006 s           0.060 s
          | Total time for scaled ZORA corrections     :        3.379 s           3.390 s

          Partial memory accounting:
          | Residual value for overall tracked memory usage across tasks :     0.000000 MB (should be 0.000000 MB)
          | Peak values for overall tracked memory usage (after allocating zora_vector2):
          |   Minimum:       17.479 MB (on task 42)
          |   Maximum:       22.072 MB (on task 36)
          |   Average:       19.772 MB
          | Largest tracked array allocation (hamiltonian_shell):
          |   Minimum:        3.359 MB (on task  1)
          |   Maximum:        4.004 MB (on task 36)
          |   Average:        3.427 MB
          Note:  These values currently only include a subset of arrays which are explicitly tracked.
          The "true" memory usage will be greater.

          Have a nice day.
------------------------------------------------------------
