  MPI-parallelism will be employed.
------------------------------------------------------------
          Invoking FHI-aims ...
          Version 180607
          Git rev. (modified): 6724847 Fix JSON memory corruption in scf_solver
          Compiled on 2018/06/27 at 16:00:31 on host coe.psc.edu.

          When using FHI-aims, please cite the following reference:

          Volker Blum, Ralf Gehrke, Felix Hanke, Paula Havu,
          Ville Havu, Xinguo Ren, Karsten Reuter, and Matthias Scheffler,
          'Ab Initio Molecular Simulations with Numeric Atom-Centered Orbitals',
          Computer Physics Communications 180, 2175-2196 (2009)

          For any questions about FHI-aims, please visit the aimsclub website
          with its forums and wiki. Contributions to both the forums and the
          wiki are warmly encouraged - they are for you, and everyone is welcome there.

------------------------------------------------------------



  Date     :  20210620, Time     :  175717.916
  Time zero on CPU 1             :   0.233542000000000E+00  s.
  Internal wall clock time zero  :           393443837.916  s.

  FHI-aims created a unique identifier for this run for later identification
  aims_uuid : 53BEBC7D-CE35-412E-A60E-6FA8652D9C7C

  Using       56 parallel tasks.
  Task        0 on host d021 reporting.
  Task        1 on host d021 reporting.
  Task        2 on host d021 reporting.
  Task        3 on host d021 reporting.
  Task        4 on host d021 reporting.
  Task        5 on host d021 reporting.
  Task        6 on host d021 reporting.
  Task        7 on host d021 reporting.
  Task        8 on host d021 reporting.
  Task        9 on host d021 reporting.
  Task       10 on host d021 reporting.
  Task       11 on host d021 reporting.
  Task       12 on host d021 reporting.
  Task       13 on host d021 reporting.
  Task       14 on host d021 reporting.
  Task       15 on host d021 reporting.
  Task       16 on host d021 reporting.
  Task       17 on host d021 reporting.
  Task       18 on host d021 reporting.
  Task       19 on host d021 reporting.
  Task       20 on host d021 reporting.
  Task       21 on host d021 reporting.
  Task       22 on host d021 reporting.
  Task       23 on host d021 reporting.
  Task       24 on host d021 reporting.
  Task       25 on host d021 reporting.
  Task       26 on host d021 reporting.
  Task       27 on host d021 reporting.
  Task       28 on host d021 reporting.
  Task       29 on host d021 reporting.
  Task       30 on host d021 reporting.
  Task       31 on host d021 reporting.
  Task       32 on host d021 reporting.
  Task       33 on host d021 reporting.
  Task       34 on host d021 reporting.
  Task       35 on host d021 reporting.
  Task       36 on host d021 reporting.
  Task       37 on host d021 reporting.
  Task       38 on host d021 reporting.
  Task       39 on host d021 reporting.
  Task       40 on host d021 reporting.
  Task       41 on host d021 reporting.
  Task       42 on host d021 reporting.
  Task       43 on host d021 reporting.
  Task       44 on host d021 reporting.
  Task       45 on host d021 reporting.
  Task       46 on host d021 reporting.
  Task       47 on host d021 reporting.
  Task       48 on host d021 reporting.
  Task       49 on host d021 reporting.
  Task       50 on host d021 reporting.
  Task       51 on host d021 reporting.
  Task       52 on host d021 reporting.
  Task       53 on host d021 reporting.
  Task       54 on host d021 reporting.
  Task       55 on host d021 reporting.

  Performing system and environment tests:
  *** Environment variable OMP_NUM_THREADS is not set
  *** For performance reasons you might want to set it to 1
  | Stacksize not measured: no C compiler
  | Checking for scalapack...
  | Testing pdtran()...
  | All pdtran() tests passed.

  Obtaining array dimensions for all initial allocations:
  
  -----------------------------------------------------------------------
  Parsing control.in (first pass over file, find array dimensions only).
  The contents of control.in will be repeated verbatim below
  unless switched off by setting 'verbatim_writeout .false.' .
  in the first line of control.in .
  -----------------------------------------------------------------------
  
  #===============================================================================
  # FHI-aims file: ./Runs/es/control.in
  # Created using the Atomic Simulation Environment (ASE)
  # Mon Jan 13 16:04:38 2020
  #===============================================================================
  xc                                 pbe
  relativistic                       zora scalar 1e-12
  occupation_type                    gaussian 0.0001
  load_balancing                     .true.
  KS_method                          scalapack_fast
  mixer                              pulay
  n_max_pulay                        5
  charge_mix_param                   0.4
  sc_accuracy_etot                   1e-6
  sc_accuracy_eev                    1e-4
  sc_accuracy_rho                    1e-6
  sc_iter_limit                      100
  prodbas_threshold                  1e-4
  basis_threshold                    1e-5
  override_illconditioning           .true.
  use_logsbt                         .true.
  spin                               none
  charge                             0
  #===============================================================================
  
  ################################################################################
  #
  #  FHI-aims code project
  # Volker Blum, Fritz Haber Institute Berlin, 2009
  #
  #  Suggested "tight" defaults for H atom (to be pasted into control.in file)
  #
  ################################################################################
    species        H
  #     global species definitions
      nucleus             1
      mass                1.00794
  #
      l_hartree           6
  #
      cut_pot             4.0  2.0  1.0
      basis_dep_cutoff    1e-4
  #
      radial_base         24 7.0
      radial_multiplier   2
      angular_grids       specified
        division   0.1930   50
        division   0.3175  110
        division   0.4293  194
        division   0.5066  302
        division   0.5626  434
  #      division   0.5922  590
  #      division   0.6227  974
  #      division   0.6868 1202
  #      outer_grid  770
        outer_grid  434
  ################################################################################
  #
  #  Definition of "minimal" basis
  #
  ################################################################################
  #     valence basis states
      valence      1  s   1.
  #     ion occupancy
      ion_occ      1  s   0.5
  ################################################################################
  #
  #  Suggested additional basis functions. For production calculations,
  #  uncomment them one after another (the most important basis functions are
  #  listed first).
  #
  #  Basis constructed for dimers: 0.5 A, 0.7 A, 1.0 A, 1.5 A, 2.5 A
  #
  ################################################################################
  #  "First tier" - improvements: -1014.90 meV to -62.69 meV
       hydro 2 s 2.1
       hydro 2 p 3.5
  #  "Second tier" - improvements: -12.89 meV to -1.83 meV
       hydro 1 s 0.85
       hydro 2 p 3.7
       hydro 2 s 1.2
       hydro 3 d 7
  #  "Third tier" - improvements: -0.25 meV to -0.12 meV
  #     hydro 4 f 11.2
  #     hydro 3 p 4.8
  #     hydro 4 d 9
  #     hydro 3 s 3.2
  ################################################################################
  #
  # For methods that use the localized form of the "resolution of identity" for
  # the two-electron Coulomb operator (RI_method LVL), particularly Hartree-Fock and
  # hybrid density functional calculations, the highest accuracy can be obtained by
  # uncommenting the line beginning with "for_aux"  below, thus adding an extra g radial
  # function to the construction of the product basis set for the expansion.
  # See Ref. New J. Phys. 17, 093020 (2015) for more information, particularly Figs. 1 and 6.
  #
  ################################################################################
  #
  # for_aux hydro 5 g 6.0
  ################################################################################
  #
  #  FHI-aims code project
  # Volker Blum, Fritz Haber Institute Berlin, 2009
  #
  #  Suggested "tight" defaults for C atom (to be pasted into control.in file)
  #
  ################################################################################
    species        C
  #     global species definitions
      nucleus             6
      mass                12.0107
  #
      l_hartree           6
  #
      cut_pot             4.0  2.0  1.0
      basis_dep_cutoff    1e-4
  #
      radial_base         34 7.0
      radial_multiplier   2
      angular_grids specified
        division   0.2187   50
        division   0.4416  110
        division   0.6335  194
        division   0.7727  302
        division   0.8772  434
  #      division   0.9334  590
  #      division   0.9924  770
  #      division   1.0230  974
  #      division   1.5020 1202
  #     outer_grid  974
        outer_grid  434
  ################################################################################
  #
  #  Definition of "minimal" basis
  #
  ################################################################################
  #     valence basis states
      valence      2  s   2.
      valence      2  p   2.
  #     ion occupancy
      ion_occ      2  s   1.
      ion_occ      2  p   1.
  ################################################################################
  #
  #  Suggested additional basis functions. For production calculations,
  #  uncomment them one after another (the most important basis functions are
  #  listed first).
  #
  #  Constructed for dimers: 1.0 A, 1.25 A, 1.5 A, 2.0 A, 3.0 A
  #
  ################################################################################
  #  "First tier" - improvements: -1214.57 meV to -155.61 meV
       hydro 2 p 1.7
       hydro 3 d 6
       hydro 2 s 4.9
  #  "Second tier" - improvements: -67.75 meV to -5.23 meV
       hydro 4 f 9.8
       hydro 3 p 5.2
       hydro 3 s 4.3
       hydro 5 g 14.4
       hydro 3 d 6.2
  #  "Third tier" - improvements: -2.43 meV to -0.60 meV
  #     hydro 2 p 5.6
  #     hydro 2 s 1.4
  #     hydro 3 d 4.9
  #     hydro 4 f 11.2
  #  "Fourth tier" - improvements: -0.39 meV to -0.18 meV
  #     hydro 2 p 2.1
  #     hydro 5 g 16.4
  #     hydro 4 d 13.2
  #     hydro 3 s 13.6
  #     hydro 4 f 17.6
  #  Further basis functions - improvements: -0.08 meV and below
  #     hydro 3 s 2
  #     hydro 3 p 6
  #     hydro 4 d 20
  ################################################################################
  #
  # For methods that use the localized form of the "resolution of identity" for
  # the two-electron Coulomb operator (RI_method LVL), particularly Hartree-Fock and
  # hybrid density functional calculations, the highest accuracy can be obtained by
  # uncommenting the line beginning with "for_aux"  below, thus adding an extra g radial
  # function to the construction of the product basis set for the expansion.
  # See Ref. New J. Phys. 17, 093020 (2015) for more information, particularly Figs. 1 and 6.
  #
  ################################################################################
  #
  # for_aux hydro 5 g 6.0
  
  -----------------------------------------------------------------------
  Completed first pass over input file control.in .
  -----------------------------------------------------------------------
  
  
  -----------------------------------------------------------------------
  Parsing geometry.in (first pass over file, find array dimensions only).
  The contents of geometry.in will be repeated verbatim below
  unless switched off by setting 'verbatim_writeout .false.' .
  in the first line of geometry.in .
  -----------------------------------------------------------------------
  
  #=======================================================
  # FHI-aims file: geometry.in
  # Created using the Atomic Simulation Environment (ASE)
  # Sun Jun 20 15:47:02 2021
  #=======================================================
  atom 9.3278540000000003 25.3189610000000016 76.9216389999999990 C
  atom 9.1086639999999992 24.2565950000000008 76.8147280000000023 H
  atom 9.0189950000000003 25.9646569999999990 78.0864899999999977 C
  atom 9.9287120000000009 26.0000210000000003 75.8365730000000013 C
  atom 8.5407620000000009 25.4283159999999988 78.9050770000000057 H
  atom 9.3044790000000006 27.3502079999999985 78.2492500000000035 C
  atom 10.2590299999999992 25.3545790000000011 74.6110860000000002 C
  atom 10.2230100000000004 27.3784169999999989 75.9738020000000063 C
  atom 8.9994519999999998 28.0435000000000016 79.4460150000000027 C
  atom 9.9099350000000008 28.0571020000000004 77.1897150000000067 C
  atom 10.0325209999999991 24.2922000000000011 74.5073660000000046 H
  atom 10.8480089999999993 26.0333100000000002 73.5866560000000050 C
  atom 10.8303820000000002 28.0874249999999996 74.9046919999999972 C
  atom 8.5179229999999997 27.4732419999999991 80.2371559999999988 H
  atom 9.2761220000000009 29.3843819999999987 79.6215399999999960 C
  atom 10.2034660000000006 29.4416559999999983 77.3429000000000002 C
  atom 11.1113060000000008 25.5170320000000004 72.6627529999999950 H
  atom 11.1457549999999994 27.4159900000000007 73.6919709999999952 C
  atom 11.1212300000000006 29.4751459999999987 75.0451130000000006 C
  atom 8.9492530000000006 30.0836320000000015 80.8821319999999986 C
  atom 9.8957569999999997 30.1130910000000007 78.5556219999999996 C
  atom 10.8116050000000001 30.1434150000000010 76.2705990000000043 C
  atom 11.7481460000000002 28.1570569999999982 72.6483920000000012 C
  atom 11.7182560000000002 30.1841410000000003 73.9791940000000068 C
  atom 8.3537599999999994 29.4307070000000017 81.9384759999999943 C
  atom 9.2642430000000004 31.4745050000000006 81.0129780000000039 C
  atom 10.2107469999999996 31.5039650000000009 78.6864680000000050 C
  atom 11.1120339999999995 31.5176470000000002 76.4110199999999935 C
  atom 11.9988349999999997 27.6420400000000015 71.7206599999999952 H
  atom 12.0221339999999994 29.4877499999999984 72.7792390000000040 C
  atom 11.9933940000000003 31.5696660000000016 74.1483369999999979 C
  atom 8.0958659999999991 28.3763329999999989 81.8558199999999943 H
  atom 8.0479660000000006 30.0699499999999986 83.1575799999999958 C
  atom 8.9565339999999996 32.1459410000000005 82.2257000000000033 C
  atom 9.8838779999999993 32.2032150000000001 79.9470599999999934 C
  atom 10.8062400000000007 32.1568899999999971 77.6301239999999950 C
  atom 11.7044610000000002 32.2080860000000015 75.3163789999999977 C
  atom 12.4924350000000004 30.0326939999999993 71.9625659999999954 H
  atom 12.4551499999999997 32.1144329999999982 73.3246440000000064 H
  atom 7.4555389999999999 29.3795110000000008 84.2522210000000058 C
  atom 8.3483950000000000 31.4441820000000014 83.2980009999999993 C
  atom 9.2500649999999993 33.5304950000000019 82.3788849999999968 C
  atom 10.1605480000000004 33.5440970000000007 80.1225850000000008 C
  atom 11.0641339999999992 33.2112639999999999 77.7127799999999951 H
  atom 11.9246859999999995 33.2692850000000035 75.4293540000000036 H
  atom 7.2353139999999998 28.3183119999999988 84.1392460000000000 H
  atom 7.1666059999999998 30.0179299999999998 85.4202630000000056 C
  atom 8.0387699999999995 32.1124510000000001 84.5234870000000029 C
  atom 8.9369899999999998 34.2091800000000035 83.5947979999999973 C
  atom 9.8555209999999995 34.2373880000000028 81.3193500000000000 C
  atom 10.6420770000000005 34.1143550000000033 79.3314440000000047 H
  atom 6.7048500000000004 29.4731640000000006 86.2439559999999972 H
  atom 7.4417439999999999 31.4034550000000010 85.5894059999999968 C
  atom 8.3296180000000000 33.5001710000000017 84.6639080000000064 C
  atom 9.2312879999999993 35.5875759999999985 83.7320270000000022 C
  atom 10.1410049999999998 35.6229399999999998 81.4821100000000058 C
  atom 7.1378659999999998 32.0998469999999969 86.7893619999999970 C
  atom 8.0142450000000007 34.1716070000000016 85.8766289999999941 C
  atom 8.9009699999999992 36.2330180000000013 84.9575140000000033 C
  atom 9.8321459999999998 36.2686360000000008 82.6469610000000046 C
  atom 10.6192379999999993 36.1592800000000025 80.6635229999999979 H
  atom 6.6675649999999997 31.5549019999999985 87.6060339999999940 H
  atom 7.4118539999999999 33.4305390000000031 86.9202080000000024 C
  atom 8.3119910000000008 35.5542859999999976 85.9819439999999986 C
  atom 9.1274789999999992 37.2953970000000012 85.0612339999999989 H
  atom 10.0513359999999992 37.3310019999999980 82.7538720000000012 H
  atom 7.1611649999999996 33.9455570000000009 87.8479399999999941 H
  atom 8.0486939999999993 36.0705650000000020 86.9058469999999943 H
  
  -----------------------------------------------------------------------
  Completed first pass over input file geometry.in .
  -----------------------------------------------------------------------
  

  Basic array size parameters:
  | Number of species                 :        2
  | Number of atoms                   :       68
  | Max. basis fn. angular momentum   :        4
  | Max. atomic/ionic basis occupied n:        2
  | Max. number of basis fn. types    :        2
  | Max. radial fns per species/type  :        8
  | Max. logarithmic grid size        :     1277
  | Max. radial integration grid size :       69
  | Max. angular integration grid size:      434
  | Max. angular grid division number :        8
  | Radial grid for Hartree potential :     1277
  | Number of spin channels           :        1

------------------------------------------------------------
          Reading file control.in.
------------------------------------------------------------
  XC: Using PBE gradient-corrected functionals.
  Scalar relativistic treatment of kinetic energy: ZORA.
  Threshold value for ZORA:   0.100000E-11
  Occupation type: Gaussian broadening, width =   0.100000E-03 eV.
  Since 'load_balancing .true.' is present in control.in, automatically turning on 'use_local_index .true.'.
  Using load balancing for integrations.
  Kohn-Sham electronic structure solved by the ELSI library.
  Using pulay charge density mixing.
  Pulay mixing - number of memorized iterations:    5
  Charge density mixing - mixing parameter:     0.4000
  Convergence accuracy of total energy:  0.1000E-05
  Convergence accuracy of sum of eigenvalues:  0.1000E-03
  Convergence accuracy of self-consistent charge density:  0.1000E-05
  Maximum number of s.-c. iterations  :   100
  * Ignoring prodbas_threshold
  Threshold for basis singularities:  0.1000E-04
  override_illconditioning: Explicitly overriding any built-in checks for an ill-conditioned overlap matrix.
  *** WARNING: If you use this flag, you should really know what you are doing.
  *** DO NOT keep this flag set by default in all your control.in files.
  Using 1D integrations for auxiliary 2-center integrals.
  Spin treatment: No spin polarisation.
  Charge =   0.000000E+00: Neutral system requested explicitly.
 
  Reading configuration options for species H                   .
  | Found nuclear charge :   1.0000
  | Found atomic mass :    1.00794000000000      amu
  | Found l_max for Hartree potential  :   6
  | Found cutoff potl. onset [A], width [A], scale factor :    4.00000    2.00000    1.00000
  | Threshold for basis-dependent cutoff potential is   0.100000E-03
  | Found data for basic radial integration grid :    24 points, outermost radius =    7.000 A
  | Found multiplier for basic radial grid :   2
  | Found angular grid specification: user-specified.
  | Specified grid contains     6 separate shells.
  | Check grid settings after all constraints further below.
  | Found free-atom valence shell :  1 s   1.000
  | No ionic wave fns used. Skipping ion_occ.
  | Found hydrogenic basis function :  2 s   2.100
  | Found hydrogenic basis function :  2 p   3.500
  | Found hydrogenic basis function :  1 s   0.850
  | Found hydrogenic basis function :  2 p   3.700
  | Found hydrogenic basis function :  2 s   1.200
  | Found hydrogenic basis function :  3 d   7.000
  Species H                   : Missing cutoff potential type.
  Defaulting to exp(1/x)/(1-x)^2 type cutoff potential.
  Species H : No 'logarithmic' tag. Using default grid for free atom:
  | Default logarithmic grid data [bohr] : 0.1000E-03 0.1000E+03 0.1012E+01
  Species H : On-site basis accuracy parameter (for Gram-Schmidt orthonormalisation) not specified.
  Using default value basis_acc =  0.1000000E-03.
  Species H                   : Using default innermost maximum threshold i_radial=  2 for radial functions.
  Species H                   : Default cutoff onset for free atom density etc. : 0.40000000E+01 AA.
  Species H                   : Basic radial grid will be enhanced according to radial_multiplier =   2, to contain    49 grid points.
 
  Reading configuration options for species C                   .
  | Found nuclear charge :   6.0000
  | Found atomic mass :    12.0107000000000      amu
  | Found l_max for Hartree potential  :   6
  | Found cutoff potl. onset [A], width [A], scale factor :    4.00000    2.00000    1.00000
  | Threshold for basis-dependent cutoff potential is   0.100000E-03
  | Found data for basic radial integration grid :    34 points, outermost radius =    7.000 A
  | Found multiplier for basic radial grid :   2
  | Found angular grid specification: user-specified.
  | Specified grid contains     6 separate shells.
  | Check grid settings after all constraints further below.
  | Found free-atom valence shell :  2 s   2.000
  | Found free-atom valence shell :  2 p   2.000
  | No ionic wave fns used. Skipping ion_occ.
  | No ionic wave fns used. Skipping ion_occ.
  | Found hydrogenic basis function :  2 p   1.700
  | Found hydrogenic basis function :  3 d   6.000
  | Found hydrogenic basis function :  2 s   4.900
  | Found hydrogenic basis function :  4 f   9.800
  | Found hydrogenic basis function :  3 p   5.200
  | Found hydrogenic basis function :  3 s   4.300
  | Found hydrogenic basis function :  5 g  14.400
  | Found hydrogenic basis function :  3 d   6.200
  Species C                   : Missing cutoff potential type.
  Defaulting to exp(1/x)/(1-x)^2 type cutoff potential.
  Species C : No 'logarithmic' tag. Using default grid for free atom:
  | Default logarithmic grid data [bohr] : 0.1000E-03 0.1000E+03 0.1012E+01
  Species C : On-site basis accuracy parameter (for Gram-Schmidt orthonormalisation) not specified.
  Using default value basis_acc =  0.1000000E-03.
  Species C                   : Using default innermost maximum threshold i_radial=  2 for radial functions.
  Species C                   : Default cutoff onset for free atom density etc. : 0.40000000E+01 AA.
  Species C                   : Basic radial grid will be enhanced according to radial_multiplier =   2, to contain    69 grid points.
 
  Finished reading input file 'control.in'. Consistency checks are next.
 
  MPI_IN_PLACE appears to work with this MPI implementation.
  | Keeping use_mpi_in_place .true. (see manual).
  Target number of points in a grid batch is not set. Defaulting to  100
  Method for grid partitioning is not set. Defaulting to parallel hash+maxmin partitioning.
  Batch size limit is not set. Defaulting to    200
  By default, will store active basis functions for each batch.
  If in need of memory, prune_basis_once .false. can be used to disable this option.
  communication_type for Hartree potential was not specified.
  Defaulting to calc_hartree .
  Pulay mixer: Number of initial linear mixing iterations not set.
  Defaulting to    0 iterations.
  Work space size for distributed Hartree potential not set.
  Defaulting to   0.200000E+03 MB.
  Algorithm-dependent basis array size parameters:
  | n_max_pulay                         :        5
  Presetting      1001 iterations before the initial mixing cycle
  is restarted anyway using the sc_init_iter criterion / keyword.
  Presetting a factor      1.000 between actual scf density residual
  and density convergence criterion sc_accuracy_rho below which sc_init_iter
  takes no effect.
  Calculation of forces was not defined in control.in. No forces will be calculated.
  Geometry relaxation not requested: no relaxation will be performed.
  No accuracy limit for integral partition fn. given. Defaulting to  0.1000E-14.
  No threshold value for u(r) in integrations given. Defaulting to  0.1000E-05.
  No accuracy for occupation numbers given. Defaulting to  0.1000E-12.
  No threshold value for occupation numbers given. Defaulting to  0.0000E+00.
  No accuracy for fermi level given. Defaulting to  0.1000E-19.
  Maximum # of iterations to find E_F not set. Defaulting to  200.
  Will not use alltoall communication since running on < 1024 CPUs.
  partition_type (choice of integration weights) for integrals was not specified.
  | Using a version of the partition function of Stratmann and coworkers ('stratmann_sparse').
  | At each grid point, the set of atoms used to build the partition table is smoothly restricted to
  | only those atoms whose free-atom density would be non-zero at that grid point.
  Partitioning for Hartree potential was not defined. Using partition_type for integrals.
  | Adjusted default value of keyword multip_moments_threshold to:       0.10000000E-11
  | This value may affect high angular momentum components of the Hartree potential in periodic systems.
  No q(lm)/r^(l+1) cutoff set for long-range Hartree potential.
  | Using default value of  0.100000E-09 .
  | Verify using the multipole_threshold keyword.
  Defaulting to new monopole extrapolation.
  Density update method: automatic selection selected.
 * Warning: use_local_index and/or load_balancing needs packed_matrix_format = index
 * Changing the default setting to packed_matrix_format = index
------------------------------------------------------------


------------------------------------------------------------
          Reading geometry description geometry.in.
------------------------------------------------------------
  Input structure read successfully.
  The structure contains       68 atoms,  and a total of        308.000 electrons.

  Input geometry:
  | No unit cell requested.
  | Atomic structure:
  |       Atom                x [A]            y [A]            z [A]
  |    1: Species C             9.32785400       25.31896100       76.92163900
  |    2: Species H             9.10866400       24.25659500       76.81472800
  |    3: Species C             9.01899500       25.96465700       78.08649000
  |    4: Species C             9.92871200       26.00002100       75.83657300
  |    5: Species H             8.54076200       25.42831600       78.90507700
  |    6: Species C             9.30447900       27.35020800       78.24925000
  |    7: Species C            10.25903000       25.35457900       74.61108600
  |    8: Species C            10.22301000       27.37841700       75.97380200
  |    9: Species C             8.99945200       28.04350000       79.44601500
  |   10: Species C             9.90993500       28.05710200       77.18971500
  |   11: Species H            10.03252100       24.29220000       74.50736600
  |   12: Species C            10.84800900       26.03331000       73.58665600
  |   13: Species C            10.83038200       28.08742500       74.90469200
  |   14: Species H             8.51792300       27.47324200       80.23715600
  |   15: Species C             9.27612200       29.38438200       79.62154000
  |   16: Species C            10.20346600       29.44165600       77.34290000
  |   17: Species H            11.11130600       25.51703200       72.66275300
  |   18: Species C            11.14575500       27.41599000       73.69197100
  |   19: Species C            11.12123000       29.47514600       75.04511300
  |   20: Species C             8.94925300       30.08363200       80.88213200
  |   21: Species C             9.89575700       30.11309100       78.55562200
  |   22: Species C            10.81160500       30.14341500       76.27059900
  |   23: Species C            11.74814600       28.15705700       72.64839200
  |   24: Species C            11.71825600       30.18414100       73.97919400
  |   25: Species C             8.35376000       29.43070700       81.93847600
  |   26: Species C             9.26424300       31.47450500       81.01297800
  |   27: Species C            10.21074700       31.50396500       78.68646800
  |   28: Species C            11.11203400       31.51764700       76.41102000
  |   29: Species H            11.99883500       27.64204000       71.72066000
  |   30: Species C            12.02213400       29.48775000       72.77923900
  |   31: Species C            11.99339400       31.56966600       74.14833700
  |   32: Species H             8.09586600       28.37633300       81.85582000
  |   33: Species C             8.04796600       30.06995000       83.15758000
  |   34: Species C             8.95653400       32.14594100       82.22570000
  |   35: Species C             9.88387800       32.20321500       79.94706000
  |   36: Species C            10.80624000       32.15689000       77.63012400
  |   37: Species C            11.70446100       32.20808600       75.31637900
  |   38: Species H            12.49243500       30.03269400       71.96256600
  |   39: Species H            12.45515000       32.11443300       73.32464400
  |   40: Species C             7.45553900       29.37951100       84.25222100
  |   41: Species C             8.34839500       31.44418200       83.29800100
  |   42: Species C             9.25006500       33.53049500       82.37888500
  |   43: Species C            10.16054800       33.54409700       80.12258500
  |   44: Species H            11.06413400       33.21126400       77.71278000
  |   45: Species H            11.92468600       33.26928500       75.42935400
  |   46: Species H             7.23531400       28.31831200       84.13924600
  |   47: Species C             7.16660600       30.01793000       85.42026300
  |   48: Species C             8.03877000       32.11245100       84.52348700
  |   49: Species C             8.93699000       34.20918000       83.59479800
  |   50: Species C             9.85552100       34.23738800       81.31935000
  |   51: Species H            10.64207700       34.11435500       79.33144400
  |   52: Species H             6.70485000       29.47316400       86.24395600
  |   53: Species C             7.44174400       31.40345500       85.58940600
  |   54: Species C             8.32961800       33.50017100       84.66390800
  |   55: Species C             9.23128800       35.58757600       83.73202700
  |   56: Species C            10.14100500       35.62294000       81.48211000
  |   57: Species C             7.13786600       32.09984700       86.78936200
  |   58: Species C             8.01424500       34.17160700       85.87662900
  |   59: Species C             8.90097000       36.23301800       84.95751400
  |   60: Species C             9.83214600       36.26863600       82.64696100
  |   61: Species H            10.61923800       36.15928000       80.66352300
  |   62: Species H             6.66756500       31.55490200       87.60603400
  |   63: Species C             7.41185400       33.43053900       86.92020800
  |   64: Species C             8.31199100       35.55428600       85.98194400
  |   65: Species H             9.12747900       37.29539700       85.06123400
  |   66: Species H            10.05133600       37.33100200       82.75387200
  |   67: Species H             7.16116500       33.94555700       87.84794000
  |   68: Species H             8.04869400       36.07056500       86.90584700
  |

  | The smallest distance between any two atoms is         1.08764353 AA.
  |
  | The first atom of this pair is atom number                     43 .
  | The second atom of this pair is atom number                    51 .

  Number of empty states per atom not set in control.in - providing a guess from actual geometry.
  | Total number of empty states used during s.c.f. cycle:      174
  If you use a very high smearing, use empty_states (per atom!) in control.in to increase this value.

  Structure-dependent array size parameters: 
  | Maximum number of distinct radial functions  :       18
  | Maximum number of basis functions            :     2172
  | Number of Kohn-Sham states (occupied + empty):      328
------------------------------------------------------------

------------------------------------------------------------
          Preparing all fixed parts of the calculation.
------------------------------------------------------------
  Determining machine precision:
    2.225073858507201E-308
  Setting up grids for atomic and cluster calculations.

  Creating wave function, potential, and density for free atoms.

  Species: H

  List of occupied orbitals and eigenvalues:
    n    l              occ      energy [Ha]    energy [eV]
    1    0           1.0000        -0.238386        -6.4868


  Species: C

  List of occupied orbitals and eigenvalues:
    n    l              occ      energy [Ha]    energy [eV]
    1    0           2.0000       -10.049212      -273.4530
    2    0           2.0000        -0.504761       -13.7352
    2    1           2.0000        -0.193631        -5.2690

  Creating fixed part of basis set: Ionic, confined, hydrogenic.
 
  H                    hydrogenic:
 
  List of hydrogenic basis orbitals: 
    n    l      effective z      eigenvalue [eV]  inner max. [A]     outer max. [A]     outer radius [A]   
    2    0         2.100000       -14.9965           0.193243           1.317208           5.373006
    2    1         3.500000       -41.6672           0.602369           0.602369           4.056063
    1    0         0.850000        -9.8292           0.624871           0.624871           5.373006
    2    1         3.700000       -46.5653           0.573622           0.573622           3.910002
    2    0         1.200000        -4.5995           0.334980           2.228188           5.505995
    3    2         7.000000       -74.0753           0.680699           0.680699           3.769201
 
 
  C                    hydrogenic:
 
  List of hydrogenic basis orbitals: 
    n    l      effective z      eigenvalue [eV]  inner max. [A]     outer max. [A]     outer radius [A]   
    2    1         1.700000        -9.8152           1.245706           1.245706           5.401630
    3    2         6.000000       -54.4226           0.792453           0.792453           4.178599
    2    0         4.900000       -81.6681           0.082559           0.562749           3.353238
    4    3         9.800000       -81.6681           0.863254           0.863254           4.028125
    3    1         5.200000       -40.8774           0.305389           1.215618           4.898362
    3    0         4.300000       -27.9508           0.091041           1.610311           5.401630
    5    4        14.400000      -112.8510           0.917666           0.917666           3.883070
    3    2         6.200000       -58.1113           0.763917           0.763917           4.077671
 

  Adding cutoff potential to free-atom effective potential.
  Creating atomic-like basis functions for current effective potential.

  Species H                   :

  List of atomic basis orbitals and eigenvalues:
    n    l      energy [Ha]    energy [eV]    outer radius [A]
    1    0        -0.238386        -6.4868       5.373006


  Species C                   :

  List of atomic basis orbitals and eigenvalues:
    n    l      energy [Ha]    energy [eV]    outer radius [A]
    1    0       -10.049212      -273.4530       1.934409
    2    0        -0.504761       -13.7352       5.271162
    2    1        -0.193631        -5.2690       5.401630

  Assembling full basis from fixed parts.
  | Species H :   atomic orbital   1 s accepted.
  | Species H :    hydro orbital   2 s accepted.
  | Species H :    hydro orbital   1 s accepted.
  | Species H :    hydro orbital   2 s accepted.
  | Species H :    hydro orbital   2 p accepted.
  | Species H :    hydro orbital   2 p accepted.
  | Species H :    hydro orbital   3 d accepted.
  | Species C :   atomic orbital   1 s accepted.
  | Species C :    hydro orbital   2 s accepted.
  | Species C :   atomic orbital   2 s accepted.
  | Species C :    hydro orbital   3 s accepted.
  | Species C :    hydro orbital   3 p accepted.
  | Species C :   atomic orbital   2 p accepted.
  | Species C :    hydro orbital   2 p accepted.
  | Species C :    hydro orbital   3 d accepted.
  | Species C :    hydro orbital   3 d accepted.
  | Species C :    hydro orbital   4 f accepted.
  | Species C :    hydro orbital   5 g accepted.
 
  Basis size parameters after reduction:
  | Total number of radial functions:       18
  | Total number of basis functions :     2172
 
  Per-task memory consumption for arrays in subroutine allocate_ext:
  |           4.463336MB.
  Testing on-site integration grid accuracy.
  |  Species  Function  <phi|h_atom|phi> (log., in eV)  <phi|h_atom|phi> (rad., in eV)
           1        1                 -6.4870767962                 -6.4871688290
           1        2                 13.5032046589                 13.5028982997
           1        3                 32.8195184817                 32.8119941656
           1        4                 33.8513856511                 33.7670005767 ***
           1        5                 28.8544614965                 28.8544615203
           1        6                 59.6326952547                 59.6327656460
           1        7                 60.2719308513                 60.2719305949
           2        8               -273.4529726040               -273.4529710464
           2        9                -10.7721037319                -10.7721022101
           2       10                 17.6044132601                 17.6044162063
           2       11                 53.7706460658                 53.7706913770
           2       12                 15.0973290362                 15.0973256030
           2       13                  3.8545134692                  3.8545724687
           2       14                 12.1156992592                 12.1182024431
           2       15                 29.4352039302                 29.4352041816
           2       16                 54.8741144708                 54.8740268729
           2       17                 59.3556032049                 59.3556031382
           2       18                 93.4551837154                 93.4551838009
 * Note: Onsite integrals marked "***" above are less accurate than
 * onsite_accuracy_threshold =    0.03000 eV. Usually, this is harmless.
 * When in doubt, tighten the "radial" and/or "radial_multiplier" flags to check.

  Preparing densities etc. for the partition functions (integrals / Hartree potential).

  Preparations completed.
  max(cpu_time)          :      0.196 s.
  Wall clock time (cpu1) :      0.182 s.
------------------------------------------------------------

------------------------------------------------------------
          Begin self-consistency loop: Initialization.

          Date     :  20210620, Time     :  175718.302
------------------------------------------------------------

  Initializing index lists of integration centers etc. from given atomic structure:
  | Number of centers in hartree potential         :        68
  | Number of centers in hartree multipole         :        68
  | Number of centers in electron density summation:        68
  | Number of centers in basis integrals           :        68
  | Number of centers in integrals                 :        68
  | Number of centers in hamiltonian               :        68
  * Using 56 tasks for Scalapack Eigenvalue solver.
  Detailed listing of tasks and assigned k-points:
  (for non-periodic systems, the "k-point" denotes an internal label only)
   Task     0 k-point     1 on d021
   Task     1 k-point     1 on d021
   Task     2 k-point     1 on d021
   Task     3 k-point     1 on d021
   Task     4 k-point     1 on d021
   Task     5 k-point     1 on d021
   Task     6 k-point     1 on d021
   Task     7 k-point     1 on d021
   Task     8 k-point     1 on d021
   Task     9 k-point     1 on d021
   Task    10 k-point     1 on d021
   Task    11 k-point     1 on d021
   Task    12 k-point     1 on d021
   Task    13 k-point     1 on d021
   Task    14 k-point     1 on d021
   Task    15 k-point     1 on d021
   Task    16 k-point     1 on d021
   Task    17 k-point     1 on d021
   Task    18 k-point     1 on d021
   Task    19 k-point     1 on d021
   Task    20 k-point     1 on d021
   Task    21 k-point     1 on d021
   Task    22 k-point     1 on d021
   Task    23 k-point     1 on d021
   Task    24 k-point     1 on d021
   Task    25 k-point     1 on d021
   Task    26 k-point     1 on d021
   Task    27 k-point     1 on d021
   Task    28 k-point     1 on d021
   Task    29 k-point     1 on d021
   Task    30 k-point     1 on d021
   Task    31 k-point     1 on d021
   Task    32 k-point     1 on d021
   Task    33 k-point     1 on d021
   Task    34 k-point     1 on d021
   Task    35 k-point     1 on d021
   Task    36 k-point     1 on d021
   Task    37 k-point     1 on d021
   Task    38 k-point     1 on d021
   Task    39 k-point     1 on d021
   Task    40 k-point     1 on d021
   Task    41 k-point     1 on d021
   Task    42 k-point     1 on d021
   Task    43 k-point     1 on d021
   Task    44 k-point     1 on d021
   Task    45 k-point     1 on d021
   Task    46 k-point     1 on d021
   Task    47 k-point     1 on d021
   Task    48 k-point     1 on d021
   Task    49 k-point     1 on d021
   Task    50 k-point     1 on d021
   Task    51 k-point     1 on d021
   Task    52 k-point     1 on d021
   Task    53 k-point     1 on d021
   Task    54 k-point     1 on d021
   Task    55 k-point     1 on d021
  Tasks:    56 split into      8 X      7 BLACS grid
  Calculating block size based on n_basis =         2172 max_nprow =            8 max_npcol =            7
  ScaLAPACK block size set to:           16
  Allocating        0.696 MB for ovlp
  Allocating        0.696 MB for ham
  Allocating        0.696 MB for eigenvec
  Required Scalapack workspace - INTEGER:            1 REAL:             1
  Partitioning the integration grid into batches with parallel hashing+maxmin method.
  | Number of batches:    10578
  | Maximal batch size:     189
  | Minimal batch size:      19
  | Average batch size:     109.354
  | Standard deviation of batch sizes:      34.080

  Integration load balanced across     56 MPI tasks.
  Work distribution over tasks is as follows:
  Task      0 has      20682 integration points.
  Task      1 has      20744 integration points.
  Task      2 has      20593 integration points.
  Task      3 has      20772 integration points.
  Task      4 has      20614 integration points.
  Task      5 has      20695 integration points.
  Task      6 has      20519 integration points.
  Task      7 has      20682 integration points.
  Task      8 has      20753 integration points.
  Task      9 has      20591 integration points.
  Task     10 has      20820 integration points.
  Task     11 has      20542 integration points.
  Task     12 has      20660 integration points.
  Task     13 has      20537 integration points.
  Task     14 has      20694 integration points.
  Task     15 has      20679 integration points.
  Task     16 has      20639 integration points.
  Task     17 has      20726 integration points.
  Task     18 has      20592 integration points.
  Task     19 has      20663 integration points.
  Task     20 has      20623 integration points.
  Task     21 has      20713 integration points.
  Task     22 has      20710 integration points.
  Task     23 has      20580 integration points.
  Task     24 has      20683 integration points.
  Task     25 has      20631 integration points.
  Task     26 has      20627 integration points.
  Task     27 has      20615 integration points.
  Task     28 has      20720 integration points.
  Task     29 has      20767 integration points.
  Task     30 has      20625 integration points.
  Task     31 has      20745 integration points.
  Task     32 has      20627 integration points.
  Task     33 has      20762 integration points.
  Task     34 has      20425 integration points.
  Task     35 has      20722 integration points.
  Task     36 has      20665 integration points.
  Task     37 has      20656 integration points.
  Task     38 has      20659 integration points.
  Task     39 has      20601 integration points.
  Task     40 has      20677 integration points.
  Task     41 has      20572 integration points.
  Task     42 has      20734 integration points.
  Task     43 has      20711 integration points.
  Task     44 has      20554 integration points.
  Task     45 has      20692 integration points.
  Task     46 has      20619 integration points.
  Task     47 has      20736 integration points.
  Task     48 has      20547 integration points.
  Task     49 has      20701 integration points.
  Task     50 has      20696 integration points.
  Task     51 has      20600 integration points.
  Task     52 has      20726 integration points.
  Task     53 has      20619 integration points.
  Task     54 has      20615 integration points.
  Task     55 has      20592 integration points.
  Initializing partition tables, free-atom densities, potentials, etc. across the integration grid (initialize_grid_storage).
  | initialize_grid_storage: Actual outermost partition radius vs. multipole_radius_free
  | (-- VB: in principle, multipole_radius_free should be larger, hence this output)
  | Species        1: Confinement radius =              6.000000000000000 AA, multipole_radius_free =              6.071692442739658 AA.
  | Species        1: outer_partition_radius set to              6.071692442739658 AA .
  | Species        2: Confinement radius =              6.000000000000000 AA, multipole_radius_free =              6.029870734432609 AA.
  | Species        2: outer_partition_radius set to              6.029870734432609 AA .
  | The sparse table of interatomic distances needs     52.9800 kbyte instead of    36.9920 kbyte of memory.
  | Using the partition_type stratmann_smoother will reduce your memory usage.
  | Net number of integration points:  1156744
  | of which are non-zero points    :   918988
  Renormalizing the initial density to the exact electron count on the 3D integration grid.
  | Initial density: Formal number of electrons (from input files) :     308.0000000000
  | Integrated number of electrons on 3D grid     :     308.0006672098
  | Charge integration error                      :       0.0006672098
  | Normalization factor for density and gradient :       0.9999978337
  Obtaining max. number of non-zero basis functions in each batch (get_n_compute_maxes).
  | Maximal number of non-zero basis functions:     1023
  Selecting the method for density update.
  Loop over occupied states selected for charge density update.
  Hamiltonian matrix size:
  | Size of matrix non-packed:               2359878
  | Size of matrix packed:         1672658
  Allocating        5.699 MB for KS_eigenvector
  use_local_index: Max. local matrix size =       977068
  Task:     0 matrix size:     196704
  Task:     1 matrix size:     515721
  Task:     2 matrix size:     612142
  Task:     3 matrix size:     299086
  Task:     4 matrix size:     373670
  Task:     5 matrix size:     717463
  Task:     6 matrix size:     794093
  Task:     7 matrix size:     177832
  Task:     8 matrix size:     189339
  Task:     9 matrix size:     333902
  Task:    10 matrix size:     302332
  Task:    11 matrix size:     529035
  Task:    12 matrix size:     869004
  Task:    13 matrix size:     775938
  Task:    14 matrix size:     617607
  Task:    15 matrix size:     977068
  Task:    16 matrix size:     972855
  Task:    17 matrix size:     487407
  Task:    18 matrix size:     666932
  Task:    19 matrix size:     770236
  Task:    20 matrix size:     552260
  Task:    21 matrix size:     217995
  Task:    22 matrix size:     898885
  Task:    23 matrix size:     833108
  Task:    24 matrix size:     183193
  Task:    25 matrix size:     297929
  Task:    26 matrix size:     694066
  Task:    27 matrix size:     505132
  Task:    28 matrix size:     582540
  Task:    29 matrix size:     327523
  Task:    30 matrix size:     191035
  Task:    31 matrix size:     882480
  Task:    32 matrix size:     940395
  Task:    33 matrix size:     304427
  Task:    34 matrix size:     343678
  Task:    35 matrix size:     640085
  Task:    36 matrix size:     624704
  Task:    37 matrix size:     532996
  Task:    38 matrix size:     879545
  Task:    39 matrix size:     896889
  Task:    40 matrix size:     752412
  Task:    41 matrix size:     766512
  Task:    42 matrix size:     869875
  Task:    43 matrix size:     671224
  Task:    44 matrix size:     393111
  Task:    45 matrix size:     412921
  Task:    46 matrix size:     213396
  Task:    47 matrix size:     283734
  Task:    48 matrix size:     195528
  Task:    49 matrix size:     739943
  Task:    50 matrix size:     469703
  Task:    51 matrix size:     458823
  Task:    52 matrix size:     643714
  Task:    53 matrix size:     555190
  Task:    54 matrix size:     263442
  Task:    55 matrix size:     232768
  Integrating Hamiltonian matrix: batch-based integration.
  Time summed over all CPUs for integration: real work      249.703 s, elapsed      463.586 s
  Time get_set_sparse_local_matrix_scalapack:     0.020137 s
  Start compute_balanced_batch_distribution
  Done load balancing, time needed:      0.012 s
  Integrating overlap matrix with loadbalancing
  Time summed over all CPUs for integration: real work       71.226 s, elapsed       83.343 s
  Time get_set_full_local_matrix_scalapack:     0.023622 s

  Updating Kohn-Sham eigenvalues and eigenvectors using ELSI and the ELPA eigensolver.
  Overlap matrix is not singular
  | Lowest and highest eigenvalues :  0.12E+02,  0.80E-04
  Finished singularity check of overlap matrix
  | Time :     0.176 s
  Finished Cholesky decomposition
  | Time :     0.036 s
  Finished transformation to standard eigenproblem
  | Time :     0.053 s
  Starting ELPA eigensolver
  Finished solving standard eigenproblem
  | Time :     0.192 s
  Finished back-transformation of eigenvectors
  | Time :     0.009 s

  Obtaining occupation numbers and chemical potential using ELSI.
  | Chemical potential (Fermi level):    -7.95145077 eV
  Writing Kohn-Sham eigenvalues.

  State    Occupation    Eigenvalue [Ha]    Eigenvalue [eV]
      1       2.00000         -10.171319         -276.77568
      2       2.00000         -10.171319         -276.77568
      3       2.00000         -10.171074         -276.76900
      4       2.00000         -10.171074         -276.76900
      5       2.00000         -10.170855         -276.76305
      6       2.00000         -10.170855         -276.76305
      7       2.00000         -10.170843         -276.76273
      8       2.00000         -10.170843         -276.76273
      9       2.00000         -10.170544         -276.75460
     10       2.00000         -10.170544         -276.75459
     11       2.00000         -10.170492         -276.75318
     12       2.00000         -10.170492         -276.75317
     13       2.00000         -10.170318         -276.74843
     14       2.00000         -10.170318         -276.74843
     15       2.00000         -10.170109         -276.74273
     16       2.00000         -10.170108         -276.74273
     17       2.00000         -10.169648         -276.73020
     18       2.00000         -10.169648         -276.73019
     19       2.00000         -10.169232         -276.71889
     20       2.00000         -10.169232         -276.71889
     21       2.00000         -10.167542         -276.67290
     22       2.00000         -10.167542         -276.67290
     23       2.00000         -10.167051         -276.65955
     24       2.00000         -10.167051         -276.65955
     25       2.00000         -10.166495         -276.64440
     26       2.00000         -10.166495         -276.64440
     27       2.00000         -10.166440         -276.64291
     28       2.00000         -10.166440         -276.64291
     29       2.00000         -10.166357         -276.64064
     30       2.00000         -10.166357         -276.64064
     31       2.00000         -10.166202         -276.63644
     32       2.00000         -10.166202         -276.63644
     33       2.00000         -10.166055         -276.63243
     34       2.00000         -10.166055         -276.63243
     35       2.00000         -10.165831         -276.62634
     36       2.00000         -10.165831         -276.62634
     37       2.00000         -10.165665         -276.62181
     38       2.00000         -10.165665         -276.62181
     39       2.00000         -10.165453         -276.61606
     40       2.00000         -10.165453         -276.61606
     41       2.00000         -10.165145         -276.60768
     42       2.00000         -10.165145         -276.60767
     43       2.00000         -10.163148         -276.55332
     44       2.00000         -10.163118         -276.55251
     45       2.00000         -10.162788         -276.54353
     46       2.00000         -10.162722         -276.54174
     47       2.00000         -10.162456         -276.53451
     48       2.00000         -10.162421         -276.53354
     49       2.00000          -1.030447          -28.03988
     50       2.00000          -1.026685          -27.93752
     51       2.00000          -1.004898          -27.34468
     52       2.00000          -0.997858          -27.15311
     53       2.00000          -0.996125          -27.10593
     54       2.00000          -0.991560          -26.98172
     55       2.00000          -0.963906          -26.22923
     56       2.00000          -0.961914          -26.17501
     57       2.00000          -0.951255          -25.88497
     58       2.00000          -0.949373          -25.83375
     59       2.00000          -0.940331          -25.58772
     60       2.00000          -0.929121          -25.28266
     61       2.00000          -0.925478          -25.18354
     62       2.00000          -0.907880          -24.70468
     63       2.00000          -0.900957          -24.51629
     64       2.00000          -0.887379          -24.14681
     65       2.00000          -0.884836          -24.07760
     66       2.00000          -0.881079          -23.97537
     67       2.00000          -0.874750          -23.80316
     68       2.00000          -0.864975          -23.53717
     69       2.00000          -0.864029          -23.51143
     70       2.00000          -0.855728          -23.28554
     71       2.00000          -0.848081          -23.07746
     72       2.00000          -0.837866          -22.79949
     73       2.00000          -0.790629          -21.51411
     74       2.00000          -0.788292          -21.45051
     75       2.00000          -0.786219          -21.39412
     76       2.00000          -0.776477          -21.12902
     77       2.00000          -0.774576          -21.07728
     78       2.00000          -0.774216          -21.06749
     79       2.00000          -0.773046          -21.03566
     80       2.00000          -0.766467          -20.85664
     81       2.00000          -0.760496          -20.69415
     82       2.00000          -0.753632          -20.50738
     83       2.00000          -0.715813          -19.47825
     84       2.00000          -0.705867          -19.20762
     85       2.00000          -0.694470          -18.89748
     86       2.00000          -0.692745          -18.85055
     87       2.00000          -0.692483          -18.84341
     88       2.00000          -0.690160          -18.78021
     89       2.00000          -0.684632          -18.62977
     90       2.00000          -0.683868          -18.60901
     91       2.00000          -0.675901          -18.39220
     92       2.00000          -0.672780          -18.30729
     93       2.00000          -0.669847          -18.22746
     94       2.00000          -0.655619          -17.84031
     95       2.00000          -0.637166          -17.33817
     96       2.00000          -0.632011          -17.19790
     97       2.00000          -0.626428          -17.04598
     98       2.00000          -0.626241          -17.04089
     99       2.00000          -0.621283          -16.90598
    100       2.00000          -0.614818          -16.73004
    101       2.00000          -0.607735          -16.53732
    102       2.00000          -0.607552          -16.53233
    103       2.00000          -0.604663          -16.45373
    104       2.00000          -0.600379          -16.33715
    105       2.00000          -0.596097          -16.22063
    106       2.00000          -0.583476          -15.87718
    107       2.00000          -0.581815          -15.83199
    108       2.00000          -0.578732          -15.74811
    109       2.00000          -0.574547          -15.63421
    110       2.00000          -0.570973          -15.53697
    111       2.00000          -0.570727          -15.53026
    112       2.00000          -0.569220          -15.48925
    113       2.00000          -0.568163          -15.46050
    114       2.00000          -0.566237          -15.40809
    115       2.00000          -0.561316          -15.27419
    116       2.00000          -0.559660          -15.22914
    117       2.00000          -0.551945          -15.01918
    118       2.00000          -0.546471          -14.87024
    119       2.00000          -0.540897          -14.71856
    120       2.00000          -0.537509          -14.62636
    121       2.00000          -0.535846          -14.58111
    122       2.00000          -0.527681          -14.35893
    123       2.00000          -0.523329          -14.24050
    124       2.00000          -0.520829          -14.17249
    125       2.00000          -0.518599          -14.11181
    126       2.00000          -0.514941          -14.01225
    127       2.00000          -0.513858          -13.98278
    128       2.00000          -0.512113          -13.93530
    129       2.00000          -0.511200          -13.91047
    130       2.00000          -0.510909          -13.90253
    131       2.00000          -0.507929          -13.82144
    132       2.00000          -0.505655          -13.75958
    133       2.00000          -0.487338          -13.26115
    134       2.00000          -0.482989          -13.14280
    135       2.00000          -0.480496          -13.07496
    136       2.00000          -0.476790          -12.97410
    137       2.00000          -0.476596          -12.96885
    138       2.00000          -0.475559          -12.94063
    139       2.00000          -0.461622          -12.56139
    140       2.00000          -0.459904          -12.51462
    141       2.00000          -0.454941          -12.37958
    142       2.00000          -0.442011          -12.02774
    143       2.00000          -0.430880          -11.72485
    144       2.00000          -0.416860          -11.34334
    145       2.00000          -0.406972          -11.07428
    146       2.00000          -0.406841          -11.07072
    147       2.00000          -0.402260          -10.94605
    148       2.00000          -0.398323          -10.83891
    149       2.00000          -0.392843          -10.68980
    150       2.00000          -0.382941          -10.42035
    151       2.00000          -0.373151          -10.15395
    152       2.00000          -0.360616           -9.81286
    153       2.00000          -0.357730           -9.73433
    154       2.00000          -0.340637           -9.26920
    155       0.00000          -0.270467           -7.35980
    156       0.00000          -0.254999           -6.93888
    157       0.00000          -0.249467           -6.78835
    158       0.00000          -0.236188           -6.42700
    159       0.00000          -0.230230           -6.26489
    160       0.00000          -0.218520           -5.94622
    161       0.00000          -0.213767           -5.81689
    162       0.00000          -0.206257           -5.61253
    163       0.00000          -0.205621           -5.59524
    164       0.00000          -0.200033           -5.44318
    165       0.00000          -0.191096           -5.19999
    166       0.00000          -0.166556           -4.53223
    167       0.00000          -0.155882           -4.24178
    168       0.00000          -0.137889           -3.75215
    169       0.00000          -0.132002           -3.59196
    170       0.00000          -0.130577           -3.55319
    171       0.00000          -0.105974           -2.88371
    172       0.00000          -0.102264           -2.78274
    173       0.00000          -0.075193           -2.04610
    174       0.00000          -0.069759           -1.89823
    175       0.00000          -0.067272           -1.83056
    176       0.00000          -0.060842           -1.65560
    177       0.00000          -0.058616           -1.59502
    178       0.00000          -0.056042           -1.52498
    179       0.00000          -0.049828           -1.35588
    180       0.00000          -0.048929           -1.33142
    181       0.00000          -0.048252           -1.31299
    182       0.00000          -0.043758           -1.19073
    183       0.00000          -0.043052           -1.17151
    184       0.00000          -0.041979           -1.14231
    185       0.00000          -0.027881           -0.75868
    186       0.00000          -0.027098           -0.73736
    187       0.00000          -0.023842           -0.64877
    188       0.00000          -0.021630           -0.58858
    189       0.00000          -0.018851           -0.51297
    190       0.00000          -0.017907           -0.48727
    191       0.00000          -0.016181           -0.44031
    192       0.00000          -0.015555           -0.42326
    193       0.00000          -0.012880           -0.35047
    194       0.00000          -0.009607           -0.26143
    195       0.00000          -0.008941           -0.24329
    196       0.00000          -0.008136           -0.22140
    197       0.00000          -0.006952           -0.18919
    198       0.00000          -0.004250           -0.11564
    199       0.00000          -0.002803           -0.07628
    200       0.00000           0.006413            0.17451
    201       0.00000           0.008663            0.23573
    202       0.00000           0.009148            0.24894
    203       0.00000           0.015725            0.42791
    204       0.00000           0.017628            0.47969
    205       0.00000           0.018055            0.49131
    206       0.00000           0.023708            0.64513
    207       0.00000           0.025360            0.69008
    208       0.00000           0.027258            0.74172
    209       0.00000           0.028635            0.77920
    210       0.00000           0.032712            0.89013
    211       0.00000           0.036332            0.98866
    212       0.00000           0.038032            1.03489
    213       0.00000           0.038892            1.05830
    214       0.00000           0.040073            1.09045
    215       0.00000           0.041889            1.13986
    216       0.00000           0.042922            1.16797
    217       0.00000           0.045217            1.23041
    218       0.00000           0.047071            1.28088
    219       0.00000           0.047590            1.29498
    220       0.00000           0.048352            1.31573
    221       0.00000           0.048726            1.32589
    222       0.00000           0.050771            1.38154
    223       0.00000           0.051882            1.41179
    224       0.00000           0.054435            1.48126
    225       0.00000           0.057927            1.57628
    226       0.00000           0.058999            1.60545
    227       0.00000           0.060138            1.63643
    228       0.00000           0.060329            1.64162
    229       0.00000           0.060907            1.65736
    230       0.00000           0.063806            1.73625
    231       0.00000           0.067392            1.83384
    232       0.00000           0.073033            1.98733
    233       0.00000           0.076009            2.06830
    234       0.00000           0.077858            2.11862
    235       0.00000           0.079015            2.15010
    236       0.00000           0.084350            2.29528
    237       0.00000           0.084399            2.29662
    238       0.00000           0.087304            2.37567
    239       0.00000           0.088324            2.40343
    240       0.00000           0.092183            2.50842
    241       0.00000           0.093105            2.53350
    242       0.00000           0.094187            2.56297
    243       0.00000           0.097086            2.64183
    244       0.00000           0.098509            2.68056
    245       0.00000           0.099495            2.70739
    246       0.00000           0.099932            2.71928
    247       0.00000           0.108340            2.94808
    248       0.00000           0.109174            2.97079
    249       0.00000           0.109667            2.98418
    250       0.00000           0.109940            2.99162
    251       0.00000           0.116895            3.18089
    252       0.00000           0.121633            3.30980
    253       0.00000           0.122605            3.33625
    254       0.00000           0.124899            3.39866
    255       0.00000           0.127770            3.47680
    256       0.00000           0.129343            3.51961
    257       0.00000           0.129942            3.53590
    258       0.00000           0.131325            3.57353
    259       0.00000           0.132436            3.60376
    260       0.00000           0.133144            3.62302
    261       0.00000           0.135354            3.68316
    262       0.00000           0.136977            3.72733
    263       0.00000           0.141918            3.86178
    264       0.00000           0.144299            3.92659
    265       0.00000           0.146554            3.98794
    266       0.00000           0.149151            4.05860
    267       0.00000           0.149171            4.05914
    268       0.00000           0.149923            4.07962
    269       0.00000           0.151276            4.11643
    270       0.00000           0.154245            4.19721
    271       0.00000           0.154385            4.20103
    272       0.00000           0.156615            4.26172
    273       0.00000           0.157496            4.28569
    274       0.00000           0.160465            4.36648
    275       0.00000           0.161941            4.40665
    276       0.00000           0.164102            4.46546
    277       0.00000           0.164541            4.47738
    278       0.00000           0.165347            4.49933
    279       0.00000           0.165625            4.50689
    280       0.00000           0.166202            4.52258
    281       0.00000           0.166702            4.53620
    282       0.00000           0.180349            4.90755
    283       0.00000           0.183478            4.99270
    284       0.00000           0.185042            5.03526
    285       0.00000           0.185683            5.05270
    286       0.00000           0.186076            5.06338
    287       0.00000           0.187034            5.08945
    288       0.00000           0.192651            5.24230
    289       0.00000           0.195319            5.31491
    290       0.00000           0.196559            5.34863
    291       0.00000           0.197263            5.36780
    292       0.00000           0.198106            5.39073
    293       0.00000           0.200422            5.45377
    294       0.00000           0.202128            5.50020
    295       0.00000           0.202362            5.50655
    296       0.00000           0.205805            5.60024
    297       0.00000           0.208509            5.67381
    298       0.00000           0.209560            5.70241
    299       0.00000           0.211498            5.75515
    300       0.00000           0.219074            5.96130
    301       0.00000           0.219187            5.96438
    302       0.00000           0.221443            6.02576
    303       0.00000           0.224940            6.12093
    304       0.00000           0.225707            6.14179
    305       0.00000           0.226411            6.16095
    306       0.00000           0.227004            6.17710
    307       0.00000           0.228371            6.21428
    308       0.00000           0.228524            6.21846
    309       0.00000           0.232307            6.32138
    310       0.00000           0.237864            6.47262
    311       0.00000           0.239005            6.50366
    312       0.00000           0.240305            6.53903
    313       0.00000           0.246243            6.70060
    314       0.00000           0.249875            6.79944
    315       0.00000           0.251432            6.84182
    316       0.00000           0.251870            6.85372
    317       0.00000           0.254840            6.93456
    318       0.00000           0.258370            7.03060
    319       0.00000           0.262462            7.14195
    320       0.00000           0.262730            7.14925
    321       0.00000           0.266661            7.25620
    322       0.00000           0.267948            7.29124
    323       0.00000           0.268993            7.31968
    324       0.00000           0.270278            7.35465
    325       0.00000           0.276551            7.52533
    326       0.00000           0.277175            7.54232
    327       0.00000           0.279185            7.59701
    328       0.00000           0.279308            7.60036

  Highest occupied state (VBM) at     -9.26920295 eV
  | Occupation number:      2.00000000

  Lowest unoccupied state (CBM) at    -7.35979509 eV
  | Occupation number:      0.00000000

  Overall HOMO-LUMO gap:      1.90940786 eV.
  Calculating total energy contributions from superposition of free atom densities.

  Total energy components:
  | Sum of eigenvalues            :       -1114.20799363 Ha      -30319.14212764 eV
  | XC energy correction          :        -262.19777904 Ha       -7134.76458061 eV
  | XC potential correction       :         336.80021095 Ha        9164.80003996 eV
  | Free-atom electrostatic energy:        -803.05496207 Ha      -21852.23734751 eV
  | Hartree energy correction     :           0.00000000 Ha           0.00000000 eV
  | Entropy correction            :           0.00000000 Ha           0.00000000 eV
  | ---------------------------
  | Total energy                  :       -1842.66052379 Ha      -50141.34401580 eV
  | Total energy, T -> 0          :       -1842.66052379 Ha      -50141.34401580 eV  <-- do not rely on this value for anything but (periodic) metals
  | Electronic free energy        :       -1842.66052379 Ha      -50141.34401580 eV

  Derived energy quantities:
  | Kinetic energy                :        1828.23935047 Ha       49748.92392354 eV
  | Electrostatic energy          :       -3408.70209521 Ha      -92755.50335873 eV
  | Energy correction for multipole
  | error in Hartree potential    :           0.00000000 Ha           0.00000000 eV
  | Sum of eigenvalues per atom                           :        -445.86973717 eV
  | Total energy (T->0) per atom                          :        -737.37270611 eV  <-- do not rely on this value for anything but (periodic) metals
  | Electronic free energy per atom                       :        -737.37270611 eV
  Initialize hartree_potential_storage
  Max. number of atoms included in rho_multipole:           68

  End scf initialization - timings             :  max(cpu_time)    wall_clock(cpu1)
  | Time for scf. initialization               :       12.886 s          12.945 s
  | Boundary condition initialization          :        0.001 s           0.003 s
  | Integration                                :        9.848 s           9.854 s
  | Solution of K.-S. eqns.                    :        0.499 s           0.515 s
  | Grid partitioning                          :        1.312 s           1.316 s
  | Preloading free-atom quantities on grid    :        0.013 s           0.016 s
  | Free-atom superposition energy             :        0.103 s           0.103 s
  | Total energy evaluation                    :        0.001 s           0.003 s

  Partial memory accounting:
  | Current value for overall tracked memory usage on task 0  :           8.576 MB
  | Peak value for overall tracked memory usage on task 0     :          32.467 MB after allocating zora_vector2
  | Largest tracked array allocation on task 0 so far         :           8.372 MB  when allocating hamiltonian_shell
  Note:  These values currently only include a subset of arrays which are explicitly tracked.
  The "true" memory usage will be greater.
------------------------------------------------------------

------------------------------------------------------------
          Begin self-consistency iteration #    1

  Date     :  20210620, Time     :  175731.250
------------------------------------------------------------
  Evaluating new KS density.
  Integration grid: deviation in total charge (<rho> - N_e) =   2.273737E-13
  Pulay mixing of updated and previous charge densities.

  Evaluating partitioned Hartree potential by multipole expansion.
  | Analytical far-field extrapolation by fixed multipoles:
  | Hartree multipole sum: apparent total charge =   0.654365E-03
  Summing up the Hartree potential with load balancing.
  Time summed over all CPUs for potential: real work       46.750 s, elapsed       71.004 s
  | RMS charge density error from multipole expansion :   0.170316E-01

  Start compute_balanced_batch_distribution
  Done load balancing, time needed:      0.010 s
  Integrating Hamiltonian matrix: batch-based integration with load balancing
  Time summed over all CPUs for integration: real work      270.743 s, elapsed      307.332 s
  Time get_set_full_local_matrix_scalapack:     0.024225 s
  Start compute_balanced_batch_distribution
  Done load balancing, time needed:      0.011 s

  Updating Kohn-Sham eigenvalues and eigenvectors using ELSI and the ELPA eigensolver.
  Finished transformation to standard eigenproblem
  | Time :     0.056 s
  Starting ELPA eigensolver
  Finished solving standard eigenproblem
  | Time :     0.191 s
  Finished back-transformation of eigenvectors
  | Time :     0.009 s

  Obtaining occupation numbers and chemical potential using ELSI.
  | Chemical potential (Fermi level):    -5.07143097 eV
  Writing Kohn-Sham eigenvalues.

  State    Occupation    Eigenvalue [Ha]    Eigenvalue [eV]
      1       2.00000          -9.994499         -271.96416
      2       2.00000          -9.994492         -271.96398
      3       2.00000          -9.993958         -271.94942
      4       2.00000          -9.993949         -271.94918
      5       2.00000          -9.992245         -271.90283
      6       2.00000          -9.992243         -271.90277
      7       2.00000          -9.986392         -271.74355
      8       2.00000          -9.986392         -271.74355
      9       2.00000          -9.980969         -271.59600
     10       2.00000          -9.980969         -271.59599
     11       2.00000          -9.980800         -271.59138
     12       2.00000          -9.980800         -271.59138
     13       2.00000          -9.979030         -271.54322
     14       2.00000          -9.979030         -271.54322
     15       2.00000          -9.978520         -271.52935
     16       2.00000          -9.978520         -271.52935
     17       2.00000          -9.977802         -271.50980
     18       2.00000          -9.977802         -271.50980
     19       2.00000          -9.977721         -271.50761
     20       2.00000          -9.977721         -271.50761
     21       2.00000          -9.976992         -271.48777
     22       2.00000          -9.976992         -271.48777
     23       2.00000          -9.973569         -271.39463
     24       2.00000          -9.973569         -271.39463
     25       2.00000          -9.973352         -271.38871
     26       2.00000          -9.973351         -271.38870
     27       2.00000          -9.972495         -271.36539
     28       2.00000          -9.972495         -271.36539
     29       2.00000          -9.963673         -271.12534
     30       2.00000          -9.963673         -271.12534
     31       2.00000          -9.962031         -271.08065
     32       2.00000          -9.962031         -271.08065
     33       2.00000          -9.957436         -270.95562
     34       2.00000          -9.957436         -270.95562
     35       2.00000          -9.955762         -270.91007
     36       2.00000          -9.955762         -270.91007
     37       2.00000          -9.954744         -270.88236
     38       2.00000          -9.954744         -270.88236
     39       2.00000          -9.954624         -270.87911
     40       2.00000          -9.954624         -270.87911
     41       2.00000          -9.954407         -270.87320
     42       2.00000          -9.954407         -270.87320
     43       2.00000          -9.954015         -270.86253
     44       2.00000          -9.954015         -270.86253
     45       2.00000          -9.952902         -270.83224
     46       2.00000          -9.952902         -270.83224
     47       2.00000          -9.952392         -270.81837
     48       2.00000          -9.952392         -270.81837
     49       2.00000          -0.894888          -24.35115
     50       2.00000          -0.886946          -24.13502
     51       2.00000          -0.867813          -23.61440
     52       2.00000          -0.856051          -23.29433
     53       2.00000          -0.852806          -23.20604
     54       2.00000          -0.850461          -23.14222
     55       2.00000          -0.823668          -22.41314
     56       2.00000          -0.823297          -22.40305
     57       2.00000          -0.807736          -21.97962
     58       2.00000          -0.806329          -21.94132
     59       2.00000          -0.800649          -21.78678
     60       2.00000          -0.789727          -21.48956
     61       2.00000          -0.782093          -21.28184
     62       2.00000          -0.762270          -20.74243
     63       2.00000          -0.761156          -20.71211
     64       2.00000          -0.748610          -20.37072
     65       2.00000          -0.747669          -20.34511
     66       2.00000          -0.740642          -20.15388
     67       2.00000          -0.734221          -19.97917
     68       2.00000          -0.725375          -19.73846
     69       2.00000          -0.721764          -19.64019
     70       2.00000          -0.714323          -19.43773
     71       2.00000          -0.705094          -19.18657
     72       2.00000          -0.694655          -18.90252
[...]
    158       0.00000          -0.070861           -1.92823
    159       0.00000          -0.070137           -1.90853
    160       0.00000          -0.058737           -1.59833
    161       0.00000          -0.053547           -1.45710
    162       0.00000          -0.044922           -1.22238
    163       0.00000          -0.044823           -1.21968
    164       0.00000          -0.034516           -0.93922
    165       0.00000          -0.027236           -0.74114
    166       0.00000          -0.008594           -0.23384
    167       0.00000          -0.005017           -0.13653
    168       0.00000          -0.003430           -0.09334
    169       0.00000           0.000725            0.01972
    170       0.00000           0.001349            0.03669
    171       0.00000           0.003404            0.09263
    172       0.00000           0.004090            0.11131
    173       0.00000           0.012017            0.32700
    174       0.00000           0.013248            0.36049
    175       0.00000           0.022201            0.60412
    176       0.00000           0.022316            0.60725
    177       0.00000           0.025147            0.68428
    178       0.00000           0.029059            0.79073
    179       0.00000           0.029701            0.80821
    180       0.00000           0.036177            0.98441
    181       0.00000           0.039075            1.06328
    182       0.00000           0.049155            1.33758
    183       0.00000           0.055355            1.50630
    184       0.00000           0.056037            1.52485
    185       0.00000           0.063185            1.71935
    186       0.00000           0.068425            1.86193
    187       0.00000           0.068549            1.86532
    188       0.00000           0.069741            1.89775
    189       0.00000           0.074930            2.03894
    190       0.00000           0.082884            2.25539
    191       0.00000           0.090835            2.47175
    192       0.00000           0.090894            2.47335
    193       0.00000           0.092106            2.50634
    194       0.00000           0.094510            2.57175
    195       0.00000           0.096060            2.61394
    196       0.00000           0.096275            2.61977
    197       0.00000           0.100528            2.73552
    198       0.00000           0.107140            2.91543
    199       0.00000           0.107226            2.91776
    200       0.00000           0.110031            2.99409
    201       0.00000           0.115354            3.13895
    202       0.00000           0.116274            3.16399
    203       0.00000           0.117158            3.18804
    204       0.00000           0.122521            3.33396
    205       0.00000           0.124014            3.37460
    206       0.00000           0.124290            3.38209
    207       0.00000           0.124634            3.39148
    208       0.00000           0.127707            3.47508
    209       0.00000           0.129669            3.52848
    210       0.00000           0.131649            3.58236
    211       0.00000           0.134101            3.64908
    212       0.00000           0.137641            3.74540
    213       0.00000           0.142368            3.87404
    214       0.00000           0.145491            3.95901
    215       0.00000           0.146930            3.99817
    216       0.00000           0.151686            4.12758
    217       0.00000           0.157497            4.28572
    218       0.00000           0.158645            4.31694
    219       0.00000           0.160069            4.35570
    220       0.00000           0.163527            4.44980
    221       0.00000           0.163678            4.45390
    222       0.00000           0.167930            4.56961
    223       0.00000           0.171546            4.66799
    224       0.00000           0.172498            4.69391
    225       0.00000           0.172996            4.70745
    226       0.00000           0.175765            4.78280
    227       0.00000           0.178002            4.84367
    228       0.00000           0.178981            4.87032
    229       0.00000           0.182612            4.96914
    230       0.00000           0.184932            5.03224
    231       0.00000           0.185338            5.04329
    232       0.00000           0.186444            5.07339
    233       0.00000           0.189845            5.16594
    234       0.00000           0.190053            5.17161
    235       0.00000           0.190277            5.17769
    236       0.00000           0.190511            5.18408
    237       0.00000           0.192122            5.22791
    238       0.00000           0.194255            5.28594
    239       0.00000           0.198998            5.41501
    240       0.00000           0.200274            5.44974
    241       0.00000           0.203649            5.54158
    242       0.00000           0.204729            5.57096
    243       0.00000           0.205201            5.58380
    244       0.00000           0.208399            5.67082
    245       0.00000           0.209017            5.68764
    246       0.00000           0.211394            5.75232
    247       0.00000           0.214172            5.82793
    248       0.00000           0.215958            5.87651
    249       0.00000           0.216729            5.89750
    250       0.00000           0.216758            5.89828
    251       0.00000           0.220024            5.98715
    252       0.00000           0.220637            6.00384
    253       0.00000           0.221437            6.02561
    254       0.00000           0.223066            6.06993
    255       0.00000           0.225775            6.14364
    256       0.00000           0.229997            6.25854
    257       0.00000           0.234537            6.38208
    258       0.00000           0.238137            6.48003
    259       0.00000           0.239377            6.51378
    260       0.00000           0.240105            6.53360
    261       0.00000           0.242573            6.60074
    262       0.00000           0.244086            6.64192
    263       0.00000           0.246154            6.69819
    264       0.00000           0.247566            6.73662
    265       0.00000           0.249523            6.78986
    266       0.00000           0.250296            6.81090
    267       0.00000           0.250651            6.82057
    268       0.00000           0.253112            6.88754
    269       0.00000           0.255297            6.94698
    270       0.00000           0.258529            7.03493
    271       0.00000           0.259685            7.06640
    272       0.00000           0.259829            7.07031
    273       0.00000           0.261269            7.10948
    274       0.00000           0.263231            7.16287
    275       0.00000           0.265038            7.21204
    276       0.00000           0.265658            7.22893
    277       0.00000           0.273431            7.44043
    278       0.00000           0.273869            7.45235
    279       0.00000           0.274611            7.47255
    280       0.00000           0.275826            7.50561
    281       0.00000           0.279151            7.59609
    282       0.00000           0.282019            7.67414
    283       0.00000           0.283434            7.71262
    284       0.00000           0.285114            7.75834
    285       0.00000           0.286045            7.78368
    286       0.00000           0.289464            7.87672
    287       0.00000           0.292391            7.95638
    288       0.00000           0.293161            7.97731
    289       0.00000           0.297532            8.09626
    290       0.00000           0.299464            8.14884
    291       0.00000           0.300505            8.17715
    292       0.00000           0.301033            8.19152
    293       0.00000           0.305049            8.30080
    294       0.00000           0.312392            8.50063
    295       0.00000           0.314786            8.56575
    296       0.00000           0.318035            8.65417
    297       0.00000           0.321626            8.75189
    298       0.00000           0.321990            8.76178
    299       0.00000           0.327393            8.90882
    300       0.00000           0.329314            8.96109
    301       0.00000           0.330928            9.00502
    302       0.00000           0.333376            9.07162
    303       0.00000           0.339130            9.22820
    304       0.00000           0.339199            9.23008
    305       0.00000           0.343331            9.34250
    306       0.00000           0.344330            9.36969
    307       0.00000           0.345719            9.40748
    308       0.00000           0.350680            9.54250
    309       0.00000           0.354908            9.65753
    310       0.00000           0.356280            9.69488
    311       0.00000           0.356452            9.69955
    312       0.00000           0.357233            9.72080
    313       0.00000           0.357282            9.72214
    314       0.00000           0.357934            9.73989
    315       0.00000           0.358371            9.75178
    316       0.00000           0.362468            9.86325
    317       0.00000           0.363766            9.89858
    318       0.00000           0.371720           10.11501
    319       0.00000           0.376515           10.24549
    320       0.00000           0.383148           10.42600
    321       0.00000           0.384394           10.45990
    322       0.00000           0.387101           10.53356
    323       0.00000           0.397226           10.80907
    324       0.00000           0.400193           10.88979
    325       0.00000           0.407363           11.08491
    326       0.00000           0.408665           11.12035
    327       0.00000           0.409387           11.14000
    328       0.00000           0.416175           11.32469

  Highest occupied state (VBM) at     -4.75981774 eV
  | Occupation number:      2.00000000

  Lowest unoccupied state (CBM) at    -2.91878673 eV
  | Occupation number:      0.00000000

  Overall HOMO-LUMO gap:      1.84103102 eV.

  Total energy components:
  | Sum of eigenvalues            :       -1049.03321441 Ha      -28545.64615058 eV
  | XC energy correction          :        -266.47249363 Ha       -7251.08548295 eV
  | XC potential correction       :         342.32846053 Ha        9315.23136478 eV
  | Free-atom electrostatic energy:        -803.05496207 Ha      -21852.23734751 eV
  | Hartree energy correction     :         -64.41020804 Ha       -1752.69093669 eV
  | Entropy correction            :           0.00000000 Ha           0.00000000 eV
  | ---------------------------
  | Total energy                  :       -1840.64241762 Ha      -50086.42855295 eV
  | Total energy, T -> 0          :       -1840.64241762 Ha      -50086.42855295 eV  <-- do not rely on this value for anything but (periodic) metals
  | Electronic free energy        :       -1840.64241762 Ha      -50086.42855295 eV

  Derived energy quantities:
  | Kinetic energy                :        1835.59750524 Ha       49949.14950245 eV
  | Electrostatic energy          :       -3409.76742923 Ha      -92784.49257244 eV
  | Energy correction for multipole
  | error in Hartree potential    :          -0.23641468 Ha          -6.43317077 eV
  | Sum of eigenvalues per atom                           :        -419.78891398 eV
  | Total energy (T->0) per atom                          :        -736.56512578 eV  <-- do not rely on this value for anything but (periodic) metals
  | Electronic free energy per atom                       :        -736.56512578 eV
  End evaluation of scaled ZORA corrections.
  | Time for scaled ZORA corrections           :        9.022 s           9.045 s
------------------------------------------------------------

  Energy and forces in a compact form:
  | Total energy uncorrected      :         -0.500864285529455E+05 eV
  | Total energy corrected        :         -0.500864285529455E+05 eV  <-- do not rely on this value for anything but (periodic) metals
  | Electronic free energy        :         -0.500864285529455E+05 eV

  ------------------------------------ 
  Start decomposition of the XC Energy 
  ------------------------------------ 
  X and C from original XC functional choice 
  Hartree-Fock Energy :          0.000000000 Ha              0.000000000 eV
  X Energy            :       -256.020555985 Ha          -6966.673788798 eV
  C Energy            :        -10.451937650 Ha           -284.411694154 eV
  Total XC Energy     :       -266.472493634 Ha          -7251.085482952 eV
  ------------------------------------ 
  LDA X and C from self-consistent density 
  X Energy LDA        :       -231.991252780 Ha          -6312.803180020 eV
  C Energy LDA        :        -20.045450433 Ha           -545.464459199 eV
  ------------------------------------ 
  End decomposition of the XC Energy 
  ------------------------------------ 

------------------------------------------------------------

------------------------------------------------------------------------------
  Final output of selected total energy values:

  The following output summarizes some interesting total energy values
  at the end of a run (AFTER all relaxation, molecular dynamics, etc.).

  | Total energy of the DFT / Hartree-Fock s.c.f. calculation      :         -50086.428552945 eV
  | Final zero-broadening corrected energy (caution - metals only) :         -50086.428552945 eV
  | For reference only, the value of 1 Hartree used in FHI-aims is :             27.211384500 eV

  Before relying on these values, please be sure to understand exactly which
  total energy value is referred to by a given number. Different objects may
  all carry the same name 'total energy'. Definitions:

  Total energy of the DFT / Hartree-Fock s.c.f. calculation:
  | Note that this energy does not include ANY quantities calculated after the
  | s.c.f. cycle, in particular not ANY RPA, MP2, etc. many-body perturbation terms.
  | Scalar relativistic effects have been included in the 'scaled ZORA' approximation.

  Final zero-broadening corrected energy:
  | For metallic systems only, a broadening of the occupation numbers at the Fermi
  | level can be extrapolated back to zero broadening by an electron-gas inspired
  | formula. For all systems that are not real metals, this value can be
  | meaningless and should be avoided.

------------------------------------------------------------------------------
  Methods described in the following list of references were used in this FHI-aims run.
  If you publish the results, please make sure to cite these reference if they apply.
  FHI-aims is an academic code, and for our developers (often, Ph.D. students
  and postdocs), scientific credit in the community is essential.
  Thank you for helping us!

  For any use of FHI-aims, please cite:

    Volker Blum, Ralf Gehrke, Felix Hanke, Paula Havu, Ville Havu,
    Xinguo Ren, Karsten Reuter, and Matthias Scheffler
    'Ab initio molecular simulations with numeric atom-centered orbitals'
    Computer Physics Communications 180, 2175-2196 (2009)
    http://dx.doi.org/10.1016/j.cpc.2009.06.022


  The scalable eigensolver library ELPA was used in your run.
  ELPA is essential especially for large systems on hundreds or thousands of CPUs.
  For ELPA, please cite:

    Andreas Marek, Volker Blum, Rainer Johanni, Ville Havu, Bruno Lang,
    Thomas Auckenthaler, Alexander Heinecke, Hans-Joachim Bungartz, and Hermann Lederer,
    'The ELPA Library - Scalable Parallel Eigenvalue Solutions
    for Electronic Structure Theory and Computational Science'
    The Journal of Physics: Condensed Matter 26, 213201 (2014).
    http://dx.doi.org/10.1088/0953-8984/26/21/213201


  The ELSI infrastructure was used in your run to solve the Kohn-Sham electronic structure.
  Please check out http://elsi-interchange.org to learn more.
  If scalability is important for your project, please acknowledge ELSI by citing:

    V. W-z. Yu, F. Corsetti, A. Garcia, W. P. Huhn, M. Jacquelin, W. Jia,
    B. Lange, L. Lin, J. Lu, W. Mi, A. Seifitokaldani, A. Vazquez-Mayagoitia,
    C. Yang, H. Yang, and V. Blum
    'ELSI: A unified software interface for Kohn-Sham electronic structure solvers'
    Computer Physics Communications 222, 267-285 (2018).
    http://dx.doi.org/10.1016/j.cpc.2017.09.007


  For the real-space grid partitioning and parallelization used in this calculation, please cite:

    Ville Havu, Volker Blum, Paula Havu, and Matthias Scheffler,
    'Efficient O(N) integration for all-electron electronic structure calculation'
    'using numerically tabulated basis functions'
    Journal of Computational Physics 228, 8367-8379 (2009).
    http://dx.doi.org/10.1016/j.jcp.2009.08.008

  Of course, there are many other important community references, e.g., those cited in the
  above references. Our list is limited to references that describe implementations in the
  FHI-aims code. The reason is purely practical (length of this list) - please credit others as well.

------------------------------------------------------------
          Leaving FHI-aims.
          Date     :  20210620, Time     :  180009.408

          Computational steps:
          | Number of self-consistency cycles          :           16
          | Number of SCF (re)initializations          :            1

          Detailed time accounting                     :  max(cpu_time)    wall_clock(cpu1)
          | Total time                                 :      166.705 s         171.492 s
          | Preparation time                           :        0.196 s           0.182 s
          | Boundary condition initalization           :        0.001 s           0.003 s
          | Grid partitioning                          :        1.312 s           1.316 s
          | Preloading free-atom quantities on grid    :        0.013 s           0.016 s
          | Free-atom superposition energy             :        0.103 s           0.103 s
          | Total time for integrations                :       92.563 s          92.573 s
          | Total time for solution of K.-S. equations :        5.736 s           5.758 s
          | Total time for density update              :       40.793 s          40.579 s
          | Total time for mixing                      :        0.185 s           0.188 s
          | Total time for Hartree multipole update    :        0.222 s           0.226 s
          | Total time for Hartree multipole sum       :       15.198 s          15.201 s
          | Total time for total energy evaluation     :        0.005 s           0.025 s
          | Total time for scaled ZORA corrections     :        9.022 s           9.045 s

          Partial memory accounting:
          | Residual value for overall tracked memory usage across tasks :     0.000000 MB (should be 0.000000 MB)
          | Peak values for overall tracked memory usage (after allocating zora_vector2):
          |   Minimum:       33.011 MB (on task  1)
          |   Maximum:       42.122 MB (on task 33)
          |   Average:       37.672 MB
          | Largest tracked array allocation (hamiltonian_shell):
          |   Minimum:        8.372 MB (on task  1)
          |   Maximum:        8.462 MB (on task 25)
          |   Average:        8.374 MB
          Note:  These values currently only include a subset of arrays which are explicitly tracked.
          The "true" memory usage will be greater.

          Have a nice day.
------------------------------------------------------------
