  MPI-parallelism will be employed.
------------------------------------------------------------
          Invoking FHI-aims ...
          Version 180607
          Git rev. (modified): 6724847 Fix JSON memory corruption in scf_solver
          Compiled on 2018/06/27 at 16:00:31 on host coe.psc.edu.

          When using FHI-aims, please cite the following reference:

          Volker Blum, Ralf Gehrke, Felix Hanke, Paula Havu,
          Ville Havu, Xinguo Ren, Karsten Reuter, and Matthias Scheffler,
          'Ab Initio Molecular Simulations with Numeric Atom-Centered Orbitals',
          Computer Physics Communications 180, 2175-2196 (2009)

          For any questions about FHI-aims, please visit the aimsclub website
          with its forums and wiki. Contributions to both the forums and the
          wiki are warmly encouraged - they are for you, and everyone is welcome there.

------------------------------------------------------------



  Date     :  20210620, Time     :  164530.012
  Time zero on CPU 1             :   0.299897000000000E+00  s.
  Internal wall clock time zero  :           393439530.012  s.

  FHI-aims created a unique identifier for this run for later identification
  aims_uuid : B8E10463-4FCD-4232-A38C-63E12E323205

  Using       56 parallel tasks.
  Task        0 on host d021 reporting.
  Task        1 on host d021 reporting.
  Task        2 on host d021 reporting.
  Task        3 on host d021 reporting.
  Task        4 on host d021 reporting.
  Task        5 on host d021 reporting.
  Task        6 on host d021 reporting.
  Task        7 on host d021 reporting.
  Task        8 on host d021 reporting.
  Task        9 on host d021 reporting.
  Task       10 on host d021 reporting.
  Task       11 on host d021 reporting.
  Task       12 on host d021 reporting.
  Task       13 on host d021 reporting.
  Task       14 on host d021 reporting.
  Task       15 on host d021 reporting.
  Task       16 on host d021 reporting.
  Task       17 on host d021 reporting.
  Task       18 on host d021 reporting.
  Task       19 on host d021 reporting.
  Task       20 on host d021 reporting.
  Task       21 on host d021 reporting.
  Task       22 on host d021 reporting.
  Task       23 on host d021 reporting.
  Task       24 on host d021 reporting.
  Task       25 on host d021 reporting.
  Task       26 on host d021 reporting.
  Task       27 on host d021 reporting.
  Task       28 on host d021 reporting.
  Task       29 on host d021 reporting.
  Task       30 on host d021 reporting.
  Task       31 on host d021 reporting.
  Task       32 on host d021 reporting.
  Task       33 on host d021 reporting.
  Task       34 on host d021 reporting.
  Task       35 on host d021 reporting.
  Task       36 on host d021 reporting.
  Task       37 on host d021 reporting.
  Task       38 on host d021 reporting.
  Task       39 on host d021 reporting.
  Task       40 on host d021 reporting.
  Task       41 on host d021 reporting.
  Task       42 on host d021 reporting.
  Task       43 on host d021 reporting.
  Task       44 on host d021 reporting.
  Task       45 on host d021 reporting.
  Task       46 on host d021 reporting.
  Task       47 on host d021 reporting.
  Task       48 on host d021 reporting.
  Task       49 on host d021 reporting.
  Task       50 on host d021 reporting.
  Task       51 on host d021 reporting.
  Task       52 on host d021 reporting.
  Task       53 on host d021 reporting.
  Task       54 on host d021 reporting.
  Task       55 on host d021 reporting.

  Performing system and environment tests:
  *** Environment variable OMP_NUM_THREADS is not set
  *** For performance reasons you might want to set it to 1
  | Stacksize not measured: no C compiler
  | Checking for scalapack...
  | Testing pdtran()...
  | All pdtran() tests passed.

  Obtaining array dimensions for all initial allocations:
  
  -----------------------------------------------------------------------
  Parsing control.in (first pass over file, find array dimensions only).
  The contents of control.in will be repeated verbatim below
  unless switched off by setting 'verbatim_writeout .false.' .
  in the first line of control.in .
  -----------------------------------------------------------------------
  
  #===============================================================================
  # FHI-aims file: ./Runs/es/control.in
  # Created using the Atomic Simulation Environment (ASE)
  # Mon Jan 13 16:04:38 2020
  #===============================================================================
  xc                                 pbe
  relativistic                       zora scalar 1e-12
  occupation_type                    gaussian 0.0001
  load_balancing                     .true.
  KS_method                          scalapack_fast
  mixer                              pulay
  n_max_pulay                        5
  charge_mix_param                   0.4
  sc_accuracy_etot                   1e-6
  sc_accuracy_eev                    1e-4
  sc_accuracy_rho                    1e-6
  sc_iter_limit                      100
  prodbas_threshold                  1e-4
  basis_threshold                    1e-5
  override_illconditioning           .true.
  use_logsbt                         .true.
  spin                               none
  charge                             0
  #===============================================================================
  
  ################################################################################
  #
  #  FHI-aims code project
  # Volker Blum, Fritz Haber Institute Berlin, 2009
  #
  #  Suggested "tight" defaults for H atom (to be pasted into control.in file)
  #
  ################################################################################
    species        H
  #     global species definitions
      nucleus             1
      mass                1.00794
  #
      l_hartree           6
  #
      cut_pot             4.0  2.0  1.0
      basis_dep_cutoff    1e-4
  #
      radial_base         24 7.0
      radial_multiplier   2
      angular_grids       specified
        division   0.1930   50
        division   0.3175  110
        division   0.4293  194
        division   0.5066  302
        division   0.5626  434
  #      division   0.5922  590
  #      division   0.6227  974
  #      division   0.6868 1202
  #      outer_grid  770
        outer_grid  434
  ################################################################################
  #
  #  Definition of "minimal" basis
  #
  ################################################################################
  #     valence basis states
      valence      1  s   1.
  #     ion occupancy
      ion_occ      1  s   0.5
  ################################################################################
  #
  #  Suggested additional basis functions. For production calculations,
  #  uncomment them one after another (the most important basis functions are
  #  listed first).
  #
  #  Basis constructed for dimers: 0.5 A, 0.7 A, 1.0 A, 1.5 A, 2.5 A
  #
  ################################################################################
  #  "First tier" - improvements: -1014.90 meV to -62.69 meV
       hydro 2 s 2.1
       hydro 2 p 3.5
  #  "Second tier" - improvements: -12.89 meV to -1.83 meV
       hydro 1 s 0.85
       hydro 2 p 3.7
       hydro 2 s 1.2
       hydro 3 d 7
  #  "Third tier" - improvements: -0.25 meV to -0.12 meV
  #     hydro 4 f 11.2
  #     hydro 3 p 4.8
  #     hydro 4 d 9
  #     hydro 3 s 3.2
  ################################################################################
  #
  # For methods that use the localized form of the "resolution of identity" for
  # the two-electron Coulomb operator (RI_method LVL), particularly Hartree-Fock and
  # hybrid density functional calculations, the highest accuracy can be obtained by
  # uncommenting the line beginning with "for_aux"  below, thus adding an extra g radial
  # function to the construction of the product basis set for the expansion.
  # See Ref. New J. Phys. 17, 093020 (2015) for more information, particularly Figs. 1 and 6.
  #
  ################################################################################
  #
  # for_aux hydro 5 g 6.0
  ################################################################################
  #
  #  FHI-aims code project
  # Volker Blum, Fritz Haber Institute Berlin, 2009
  #
  #  Suggested "tight" defaults for C atom (to be pasted into control.in file)
  #
  ################################################################################
    species        C
  #     global species definitions
      nucleus             6
      mass                12.0107
  #
      l_hartree           6
  #
      cut_pot             4.0  2.0  1.0
      basis_dep_cutoff    1e-4
  #
      radial_base         34 7.0
      radial_multiplier   2
      angular_grids specified
        division   0.2187   50
        division   0.4416  110
        division   0.6335  194
        division   0.7727  302
        division   0.8772  434
  #      division   0.9334  590
  #      division   0.9924  770
  #      division   1.0230  974
  #      division   1.5020 1202
  #     outer_grid  974
        outer_grid  434
  ################################################################################
  #
  #  Definition of "minimal" basis
  #
  ################################################################################
  #     valence basis states
      valence      2  s   2.
      valence      2  p   2.
  #     ion occupancy
      ion_occ      2  s   1.
      ion_occ      2  p   1.
  ################################################################################
  #
  #  Suggested additional basis functions. For production calculations,
  #  uncomment them one after another (the most important basis functions are
  #  listed first).
  #
  #  Constructed for dimers: 1.0 A, 1.25 A, 1.5 A, 2.0 A, 3.0 A
  #
  ################################################################################
  #  "First tier" - improvements: -1214.57 meV to -155.61 meV
       hydro 2 p 1.7
       hydro 3 d 6
       hydro 2 s 4.9
  #  "Second tier" - improvements: -67.75 meV to -5.23 meV
       hydro 4 f 9.8
       hydro 3 p 5.2
       hydro 3 s 4.3
       hydro 5 g 14.4
       hydro 3 d 6.2
  #  "Third tier" - improvements: -2.43 meV to -0.60 meV
  #     hydro 2 p 5.6
  #     hydro 2 s 1.4
  #     hydro 3 d 4.9
  #     hydro 4 f 11.2
  #  "Fourth tier" - improvements: -0.39 meV to -0.18 meV
  #     hydro 2 p 2.1
  #     hydro 5 g 16.4
  #     hydro 4 d 13.2
  #     hydro 3 s 13.6
  #     hydro 4 f 17.6
  #  Further basis functions - improvements: -0.08 meV and below
  #     hydro 3 s 2
  #     hydro 3 p 6
  #     hydro 4 d 20
  ################################################################################
  #
  # For methods that use the localized form of the "resolution of identity" for
  # the two-electron Coulomb operator (RI_method LVL), particularly Hartree-Fock and
  # hybrid density functional calculations, the highest accuracy can be obtained by
  # uncommenting the line beginning with "for_aux"  below, thus adding an extra g radial
  # function to the construction of the product basis set for the expansion.
  # See Ref. New J. Phys. 17, 093020 (2015) for more information, particularly Figs. 1 and 6.
  #
  ################################################################################
  #
  # for_aux hydro 5 g 6.0
  
  -----------------------------------------------------------------------
  Completed first pass over input file control.in .
  -----------------------------------------------------------------------
  
  
  -----------------------------------------------------------------------
  Parsing geometry.in (first pass over file, find array dimensions only).
  The contents of geometry.in will be repeated verbatim below
  unless switched off by setting 'verbatim_writeout .false.' .
  in the first line of geometry.in .
  -----------------------------------------------------------------------
  
  #=======================================================
  # FHI-aims file: geometry.in
  # Created using the Atomic Simulation Environment (ASE)
  # Sun Jun 20 15:47:01 2021
  #=======================================================
  atom 6.7408289999999997 12.6384570000000007 41.8267039999999994 C
  atom 5.8174770000000002 11.8248750000000005 41.1139750000000035 C
  atom 6.7108549999999996 14.0079890000000002 41.6086730000000031 C
  atom 7.4650800000000004 12.2161910000000002 42.5136529999999979 H
  atom 4.9185429999999997 12.4062450000000002 40.2369759999999985 C
  atom 5.8202030000000002 10.3798680000000001 41.3101569999999967 C
  atom 5.8206550000000004 14.6050920000000009 40.7382750000000016 C
  atom 7.4198300000000001 14.6319990000000004 42.1525729999999967 H
  atom 3.9154860000000000 11.6020529999999997 39.5052260000000004 C
  atom 4.9061420000000000 13.8432040000000001 40.0128130000000013 C
  atom 4.8837760000000001 9.6024300000000000 40.6612489999999980 C
  atom 6.7468040000000000 9.7514920000000007 42.1552450000000007 C
  atom 5.8539130000000004 15.6860090000000003 40.6170770000000019 H
  atom 2.9386260000000002 12.2215710000000009 38.5854679999999988 C
  atom 3.9887649999999999 10.2226990000000004 39.7672719999999984 C
  atom 3.9292810000000000 14.4627219999999994 39.0930559999999971 C
  atom 4.8026119999999999 8.2024919999999995 40.8333790000000008 C
  atom 6.7448220000000001 8.3484060000000007 42.3141710000000018 C
  atom 7.5099879999999999 10.3195829999999997 42.6793389999999988 H
  atom 2.0241120000000001 11.4596830000000001 37.8600059999999985 C
  atom 2.9262239999999999 13.6585300000000007 38.3613059999999990 C
  atom 3.2736440000000000 9.5607579999999999 39.2779189999999971 H
  atom 3.8560029999999998 15.8420760000000005 38.8310099999999991 C
  atom 4.0435340000000002 7.6251879999999996 40.3133729999999986 H
  atom 5.7490870000000003 7.6179660000000000 41.6569319999999976 C
  atom 7.4892620000000001 7.8665849999999997 42.9437429999999978 H
  atom 1.9908539999999999 10.3787660000000006 37.9812050000000028 H
  atom 1.1339120000000000 12.0567860000000007 36.9896090000000015 C
  atom 2.0272899999999998 14.2399000000000004 37.4843070000000012 C
  atom 2.9609920000000001 16.4623449999999991 37.9370329999999996 C
  atom 4.5711230000000000 16.5040160000000000 39.3203620000000029 H
  atom 5.7287990000000004 6.5337560000000003 41.7858329999999967 H
  atom 0.4249370000000000 11.4327760000000005 36.4457090000000008 H
  atom 1.1039390000000000 13.4263180000000002 36.7715770000000006 C
  atom 2.0245649999999999 15.6849070000000008 37.2881250000000009 C
  atom 3.0421550000000002 17.8622830000000015 37.7649019999999993 C
  atom 0.3796870000000000 13.8485840000000007 36.0846280000000021 H
  atom 1.0979639999999999 16.3132829999999984 36.4430369999999968 C
  atom 2.0956809999999999 18.4468089999999982 36.9413499999999999 C
  atom 3.8012340000000000 18.4395869999999995 38.2849089999999990 H
  atom 0.3347790000000000 15.7451910000000002 35.9189429999999987 H
  atom 1.0999450000000000 17.7163690000000003 36.2841110000000029 C
  atom 2.1159680000000001 19.5310190000000006 36.8124480000000034 H
  atom 0.3555060000000000 18.1981889999999993 35.6545389999999998 H
  
  -----------------------------------------------------------------------
  Completed first pass over input file geometry.in .
  -----------------------------------------------------------------------
  

  Basic array size parameters:
  | Number of species                 :        2
  | Number of atoms                   :       44
  | Max. basis fn. angular momentum   :        4
  | Max. atomic/ionic basis occupied n:        2
  | Max. number of basis fn. types    :        2
  | Max. radial fns per species/type  :        8
  | Max. logarithmic grid size        :     1277
  | Max. radial integration grid size :       69
  | Max. angular integration grid size:      434
  | Max. angular grid division number :        8
  | Radial grid for Hartree potential :     1277
  | Number of spin channels           :        1

------------------------------------------------------------
          Reading file control.in.
------------------------------------------------------------
  XC: Using PBE gradient-corrected functionals.
  Scalar relativistic treatment of kinetic energy: ZORA.
  Threshold value for ZORA:   0.100000E-11
  Occupation type: Gaussian broadening, width =   0.100000E-03 eV.
  Since 'load_balancing .true.' is present in control.in, automatically turning on 'use_local_index .true.'.
  Using load balancing for integrations.
  Kohn-Sham electronic structure solved by the ELSI library.
  Using pulay charge density mixing.
  Pulay mixing - number of memorized iterations:    5
  Charge density mixing - mixing parameter:     0.4000
  Convergence accuracy of total energy:  0.1000E-05
  Convergence accuracy of sum of eigenvalues:  0.1000E-03
  Convergence accuracy of self-consistent charge density:  0.1000E-05
  Maximum number of s.-c. iterations  :   100
  * Ignoring prodbas_threshold
  Threshold for basis singularities:  0.1000E-04
  override_illconditioning: Explicitly overriding any built-in checks for an ill-conditioned overlap matrix.
  *** WARNING: If you use this flag, you should really know what you are doing.
  *** DO NOT keep this flag set by default in all your control.in files.
  Using 1D integrations for auxiliary 2-center integrals.
  Spin treatment: No spin polarisation.
  Charge =   0.000000E+00: Neutral system requested explicitly.
 
  Reading configuration options for species H                   .
  | Found nuclear charge :   1.0000
  | Found atomic mass :    1.00794000000000      amu
  | Found l_max for Hartree potential  :   6
  | Found cutoff potl. onset [A], width [A], scale factor :    4.00000    2.00000    1.00000
  | Threshold for basis-dependent cutoff potential is   0.100000E-03
  | Found data for basic radial integration grid :    24 points, outermost radius =    7.000 A
  | Found multiplier for basic radial grid :   2
  | Found angular grid specification: user-specified.
  | Specified grid contains     6 separate shells.
  | Check grid settings after all constraints further below.
  | Found free-atom valence shell :  1 s   1.000
  | No ionic wave fns used. Skipping ion_occ.
  | Found hydrogenic basis function :  2 s   2.100
  | Found hydrogenic basis function :  2 p   3.500
  | Found hydrogenic basis function :  1 s   0.850
  | Found hydrogenic basis function :  2 p   3.700
  | Found hydrogenic basis function :  2 s   1.200
  | Found hydrogenic basis function :  3 d   7.000
  Species H                   : Missing cutoff potential type.
  Defaulting to exp(1/x)/(1-x)^2 type cutoff potential.
  Species H : No 'logarithmic' tag. Using default grid for free atom:
  | Default logarithmic grid data [bohr] : 0.1000E-03 0.1000E+03 0.1012E+01
  Species H : On-site basis accuracy parameter (for Gram-Schmidt orthonormalisation) not specified.
  Using default value basis_acc =  0.1000000E-03.
  Species H                   : Using default innermost maximum threshold i_radial=  2 for radial functions.
  Species H                   : Default cutoff onset for free atom density etc. : 0.40000000E+01 AA.
  Species H                   : Basic radial grid will be enhanced according to radial_multiplier =   2, to contain    49 grid points.
 
  Reading configuration options for species C                   .
  | Found nuclear charge :   6.0000
  | Found atomic mass :    12.0107000000000      amu
  | Found l_max for Hartree potential  :   6
  | Found cutoff potl. onset [A], width [A], scale factor :    4.00000    2.00000    1.00000
  | Threshold for basis-dependent cutoff potential is   0.100000E-03
  | Found data for basic radial integration grid :    34 points, outermost radius =    7.000 A
  | Found multiplier for basic radial grid :   2
  | Found angular grid specification: user-specified.
  | Specified grid contains     6 separate shells.
  | Check grid settings after all constraints further below.
  | Found free-atom valence shell :  2 s   2.000
  | Found free-atom valence shell :  2 p   2.000
  | No ionic wave fns used. Skipping ion_occ.
  | No ionic wave fns used. Skipping ion_occ.
  | Found hydrogenic basis function :  2 p   1.700
  | Found hydrogenic basis function :  3 d   6.000
  | Found hydrogenic basis function :  2 s   4.900
  | Found hydrogenic basis function :  4 f   9.800
  | Found hydrogenic basis function :  3 p   5.200
  | Found hydrogenic basis function :  3 s   4.300
  | Found hydrogenic basis function :  5 g  14.400
  | Found hydrogenic basis function :  3 d   6.200
  Species C                   : Missing cutoff potential type.
  Defaulting to exp(1/x)/(1-x)^2 type cutoff potential.
  Species C : No 'logarithmic' tag. Using default grid for free atom:
  | Default logarithmic grid data [bohr] : 0.1000E-03 0.1000E+03 0.1012E+01
  Species C : On-site basis accuracy parameter (for Gram-Schmidt orthonormalisation) not specified.
  Using default value basis_acc =  0.1000000E-03.
  Species C                   : Using default innermost maximum threshold i_radial=  2 for radial functions.
  Species C                   : Default cutoff onset for free atom density etc. : 0.40000000E+01 AA.
  Species C                   : Basic radial grid will be enhanced according to radial_multiplier =   2, to contain    69 grid points.
 
  Finished reading input file 'control.in'. Consistency checks are next.
 
  MPI_IN_PLACE appears to work with this MPI implementation.
  | Keeping use_mpi_in_place .true. (see manual).
  Target number of points in a grid batch is not set. Defaulting to  100
  Method for grid partitioning is not set. Defaulting to parallel hash+maxmin partitioning.
  Batch size limit is not set. Defaulting to    200
  By default, will store active basis functions for each batch.
  If in need of memory, prune_basis_once .false. can be used to disable this option.
  communication_type for Hartree potential was not specified.
  Defaulting to calc_hartree .
  Pulay mixer: Number of initial linear mixing iterations not set.
  Defaulting to    0 iterations.
  Work space size for distributed Hartree potential not set.
  Defaulting to   0.200000E+03 MB.
  Algorithm-dependent basis array size parameters:
  | n_max_pulay                         :        5
  Presetting      1001 iterations before the initial mixing cycle
  is restarted anyway using the sc_init_iter criterion / keyword.
  Presetting a factor      1.000 between actual scf density residual
  and density convergence criterion sc_accuracy_rho below which sc_init_iter
  takes no effect.
  Calculation of forces was not defined in control.in. No forces will be calculated.
  Geometry relaxation not requested: no relaxation will be performed.
  No accuracy limit for integral partition fn. given. Defaulting to  0.1000E-14.
  No threshold value for u(r) in integrations given. Defaulting to  0.1000E-05.
  No accuracy for occupation numbers given. Defaulting to  0.1000E-12.
  No threshold value for occupation numbers given. Defaulting to  0.0000E+00.
  No accuracy for fermi level given. Defaulting to  0.1000E-19.
  Maximum # of iterations to find E_F not set. Defaulting to  200.
  Will not use alltoall communication since running on < 1024 CPUs.
  partition_type (choice of integration weights) for integrals was not specified.
  | Using a version of the partition function of Stratmann and coworkers ('stratmann_sparse').
  | At each grid point, the set of atoms used to build the partition table is smoothly restricted to
  | only those atoms whose free-atom density would be non-zero at that grid point.
  Partitioning for Hartree potential was not defined. Using partition_type for integrals.
  | Adjusted default value of keyword multip_moments_threshold to:       0.10000000E-11
  | This value may affect high angular momentum components of the Hartree potential in periodic systems.
  No q(lm)/r^(l+1) cutoff set for long-range Hartree potential.
  | Using default value of  0.100000E-09 .
  | Verify using the multipole_threshold keyword.
  Defaulting to new monopole extrapolation.
  Density update method: automatic selection selected.
 * Warning: use_local_index and/or load_balancing needs packed_matrix_format = index
 * Changing the default setting to packed_matrix_format = index
------------------------------------------------------------


------------------------------------------------------------
          Reading geometry description geometry.in.
------------------------------------------------------------
  Input structure read successfully.
  The structure contains       44 atoms,  and a total of        184.000 electrons.

  Input geometry:
  | No unit cell requested.
  | Atomic structure:
  |       Atom                x [A]            y [A]            z [A]
  |    1: Species C             6.74082900       12.63845700       41.82670400
  |    2: Species C             5.81747700       11.82487500       41.11397500
  |    3: Species C             6.71085500       14.00798900       41.60867300
  |    4: Species H             7.46508000       12.21619100       42.51365300
  |    5: Species C             4.91854300       12.40624500       40.23697600
  |    6: Species C             5.82020300       10.37986800       41.31015700
  |    7: Species C             5.82065500       14.60509200       40.73827500
  |    8: Species H             7.41983000       14.63199900       42.15257300
  |    9: Species C             3.91548600       11.60205300       39.50522600
  |   10: Species C             4.90614200       13.84320400       40.01281300
  |   11: Species C             4.88377600        9.60243000       40.66124900
  |   12: Species C             6.74680400        9.75149200       42.15524500
  |   13: Species H             5.85391300       15.68600900       40.61707700
  |   14: Species C             2.93862600       12.22157100       38.58546800
  |   15: Species C             3.98876500       10.22269900       39.76727200
  |   16: Species C             3.92928100       14.46272200       39.09305600
  |   17: Species C             4.80261200        8.20249200       40.83337900
  |   18: Species C             6.74482200        8.34840600       42.31417100
  |   19: Species H             7.50998800       10.31958300       42.67933900
  |   20: Species C             2.02411200       11.45968300       37.86000600
  |   21: Species C             2.92622400       13.65853000       38.36130600
  |   22: Species H             3.27364400        9.56075800       39.27791900
  |   23: Species C             3.85600300       15.84207600       38.83101000
  |   24: Species H             4.04353400        7.62518800       40.31337300
  |   25: Species C             5.74908700        7.61796600       41.65693200
  |   26: Species H             7.48926200        7.86658500       42.94374300
  |   27: Species H             1.99085400       10.37876600       37.98120500
  |   28: Species C             1.13391200       12.05678600       36.98960900
  |   29: Species C             2.02729000       14.23990000       37.48430700
  |   30: Species C             2.96099200       16.46234500       37.93703300
  |   31: Species H             4.57112300       16.50401600       39.32036200
  |   32: Species H             5.72879900        6.53375600       41.78583300
  |   33: Species H             0.42493700       11.43277600       36.44570900
  |   34: Species C             1.10393900       13.42631800       36.77157700
  |   35: Species C             2.02456500       15.68490700       37.28812500
  |   36: Species C             3.04215500       17.86228300       37.76490200
  |   37: Species H             0.37968700       13.84858400       36.08462800
  |   38: Species C             1.09796400       16.31328300       36.44303700
  |   39: Species C             2.09568100       18.44680900       36.94135000
  |   40: Species H             3.80123400       18.43958700       38.28490900
  |   41: Species H             0.33477900       15.74519100       35.91894300
  |   42: Species C             1.09994500       17.71636900       36.28411100
  |   43: Species H             2.11596800       19.53101900       36.81244800
  |   44: Species H             0.35550600       18.19818900       35.65453900
  |

  | The smallest distance between any two atoms is         1.08385747 AA.
  |
  | The first atom of this pair is atom number                      1 .
  | The second atom of this pair is atom number                     4 .

  Number of empty states per atom not set in control.in - providing a guess from actual geometry.
  | Total number of empty states used during s.c.f. cycle:      108
  If you use a very high smearing, use empty_states (per atom!) in control.in to increase this value.

  Structure-dependent array size parameters: 
  | Maximum number of distinct radial functions  :       18
  | Maximum number of basis functions            :     1332
  | Number of Kohn-Sham states (occupied + empty):      200
------------------------------------------------------------

------------------------------------------------------------
          Preparing all fixed parts of the calculation.
------------------------------------------------------------
  Determining machine precision:
    2.225073858507201E-308
  Setting up grids for atomic and cluster calculations.

  Creating wave function, potential, and density for free atoms.

  Species: H

  List of occupied orbitals and eigenvalues:
    n    l              occ      energy [Ha]    energy [eV]
    1    0           1.0000        -0.238386        -6.4868


  Species: C

  List of occupied orbitals and eigenvalues:
    n    l              occ      energy [Ha]    energy [eV]
    1    0           2.0000       -10.049212      -273.4530
    2    0           2.0000        -0.504761       -13.7352
    2    1           2.0000        -0.193631        -5.2690

  Creating fixed part of basis set: Ionic, confined, hydrogenic.
 
  H                    hydrogenic:
 
  List of hydrogenic basis orbitals: 
    n    l      effective z      eigenvalue [eV]  inner max. [A]     outer max. [A]     outer radius [A]   
    2    0         2.100000       -14.9965           0.193243           1.317208           5.373006
    2    1         3.500000       -41.6672           0.602369           0.602369           4.056063
    1    0         0.850000        -9.8292           0.624871           0.624871           5.373006
    2    1         3.700000       -46.5653           0.573622           0.573622           3.910002
    2    0         1.200000        -4.5995           0.334980           2.228188           5.505995
    3    2         7.000000       -74.0753           0.680699           0.680699           3.769201
 
 
  C                    hydrogenic:
 
  List of hydrogenic basis orbitals: 
    n    l      effective z      eigenvalue [eV]  inner max. [A]     outer max. [A]     outer radius [A]   
    2    1         1.700000        -9.8152           1.245706           1.245706           5.401630
    3    2         6.000000       -54.4226           0.792453           0.792453           4.178599
    2    0         4.900000       -81.6681           0.082559           0.562749           3.353238
    4    3         9.800000       -81.6681           0.863254           0.863254           4.028125
    3    1         5.200000       -40.8774           0.305389           1.215618           4.898362
    3    0         4.300000       -27.9508           0.091041           1.610311           5.401630
    5    4        14.400000      -112.8510           0.917666           0.917666           3.883070
    3    2         6.200000       -58.1113           0.763917           0.763917           4.077671
 

  Adding cutoff potential to free-atom effective potential.
  Creating atomic-like basis functions for current effective potential.

  Species H                   :

  List of atomic basis orbitals and eigenvalues:
    n    l      energy [Ha]    energy [eV]    outer radius [A]
    1    0        -0.238386        -6.4868       5.373006


  Species C                   :

  List of atomic basis orbitals and eigenvalues:
    n    l      energy [Ha]    energy [eV]    outer radius [A]
    1    0       -10.049212      -273.4530       1.934409
    2    0        -0.504761       -13.7352       5.271162
    2    1        -0.193631        -5.2690       5.401630

  Assembling full basis from fixed parts.
  | Species H :   atomic orbital   1 s accepted.
  | Species H :    hydro orbital   2 s accepted.
  | Species H :    hydro orbital   1 s accepted.
  | Species H :    hydro orbital   2 s accepted.
  | Species H :    hydro orbital   2 p accepted.
  | Species H :    hydro orbital   2 p accepted.
  | Species H :    hydro orbital   3 d accepted.
  | Species C :   atomic orbital   1 s accepted.
  | Species C :    hydro orbital   2 s accepted.
  | Species C :   atomic orbital   2 s accepted.
  | Species C :    hydro orbital   3 s accepted.
  | Species C :    hydro orbital   3 p accepted.
  | Species C :   atomic orbital   2 p accepted.
  | Species C :    hydro orbital   2 p accepted.
  | Species C :    hydro orbital   3 d accepted.
  | Species C :    hydro orbital   3 d accepted.
  | Species C :    hydro orbital   4 f accepted.
  | Species C :    hydro orbital   5 g accepted.
 
  Basis size parameters after reduction:
  | Total number of radial functions:       18
  | Total number of basis functions :     1332
 
  Per-task memory consumption for arrays in subroutine allocate_ext:
  |           4.444616MB.
  Testing on-site integration grid accuracy.
  |  Species  Function  <phi|h_atom|phi> (log., in eV)  <phi|h_atom|phi> (rad., in eV)
           1        1                 -6.4870767962                 -6.4871688290
           1        2                 13.5032046589                 13.5028982997
           1        3                 32.8195184817                 32.8119941656
           1        4                 33.8513856511                 33.7670005767 ***
           1        5                 28.8544614965                 28.8544615203
           1        6                 59.6326952547                 59.6327656460
           1        7                 60.2719308513                 60.2719305949
           2        8               -273.4529726040               -273.4529710464
           2        9                -10.7721037319                -10.7721022101
           2       10                 17.6044132601                 17.6044162063
           2       11                 53.7706460658                 53.7706913770
           2       12                 15.0973290362                 15.0973256030
           2       13                  3.8545134692                  3.8545724687
           2       14                 12.1156992592                 12.1182024431
           2       15                 29.4352039302                 29.4352041816
           2       16                 54.8741144708                 54.8740268729
           2       17                 59.3556032049                 59.3556031382
           2       18                 93.4551837154                 93.4551838009
 * Note: Onsite integrals marked "***" above are less accurate than
 * onsite_accuracy_threshold =    0.03000 eV. Usually, this is harmless.
 * When in doubt, tighten the "radial" and/or "radial_multiplier" flags to check.

  Preparing densities etc. for the partition functions (integrals / Hartree potential).

  Preparations completed.
  max(cpu_time)          :      0.231 s.
  Wall clock time (cpu1) :      0.257 s.
------------------------------------------------------------

------------------------------------------------------------
          Begin self-consistency loop: Initialization.

          Date     :  20210620, Time     :  164530.798
------------------------------------------------------------

  Initializing index lists of integration centers etc. from given atomic structure:
  | Number of centers in hartree potential         :        44
  | Number of centers in hartree multipole         :        44
  | Number of centers in electron density summation:        44
  | Number of centers in basis integrals           :        44
  | Number of centers in integrals                 :        44
  | Number of centers in hamiltonian               :        44
  * Using 56 tasks for Scalapack Eigenvalue solver.
  Detailed listing of tasks and assigned k-points:
  (for non-periodic systems, the "k-point" denotes an internal label only)
   Task     0 k-point     1 on d021
   Task     1 k-point     1 on d021
   Task     2 k-point     1 on d021
   Task     3 k-point     1 on d021
   Task     4 k-point     1 on d021
   Task     5 k-point     1 on d021
   Task     6 k-point     1 on d021
   Task     7 k-point     1 on d021
   Task     8 k-point     1 on d021
   Task     9 k-point     1 on d021
   Task    10 k-point     1 on d021
   Task    11 k-point     1 on d021
   Task    12 k-point     1 on d021
   Task    13 k-point     1 on d021
   Task    14 k-point     1 on d021
   Task    15 k-point     1 on d021
   Task    16 k-point     1 on d021
   Task    17 k-point     1 on d021
   Task    18 k-point     1 on d021
   Task    19 k-point     1 on d021
   Task    20 k-point     1 on d021
   Task    21 k-point     1 on d021
   Task    22 k-point     1 on d021
   Task    23 k-point     1 on d021
   Task    24 k-point     1 on d021
   Task    25 k-point     1 on d021
   Task    26 k-point     1 on d021
   Task    27 k-point     1 on d021
   Task    28 k-point     1 on d021
   Task    29 k-point     1 on d021
   Task    30 k-point     1 on d021
   Task    31 k-point     1 on d021
   Task    32 k-point     1 on d021
   Task    33 k-point     1 on d021
   Task    34 k-point     1 on d021
   Task    35 k-point     1 on d021
   Task    36 k-point     1 on d021
   Task    37 k-point     1 on d021
   Task    38 k-point     1 on d021
   Task    39 k-point     1 on d021
   Task    40 k-point     1 on d021
   Task    41 k-point     1 on d021
   Task    42 k-point     1 on d021
   Task    43 k-point     1 on d021
   Task    44 k-point     1 on d021
   Task    45 k-point     1 on d021
   Task    46 k-point     1 on d021
   Task    47 k-point     1 on d021
   Task    48 k-point     1 on d021
   Task    49 k-point     1 on d021
   Task    50 k-point     1 on d021
   Task    51 k-point     1 on d021
   Task    52 k-point     1 on d021
   Task    53 k-point     1 on d021
   Task    54 k-point     1 on d021
   Task    55 k-point     1 on d021
  Tasks:    56 split into      8 X      7 BLACS grid
  Calculating block size based on n_basis =         1332 max_nprow =            8 max_npcol =            7
  ScaLAPACK block size set to:           16
  Allocating        0.270 MB for ovlp
  Allocating        0.270 MB for ham
  Allocating        0.270 MB for eigenvec
  Required Scalapack workspace - INTEGER:            1 REAL:             1
  Partitioning the integration grid into batches with parallel hashing+maxmin method.
  | Number of batches:     6737
  | Maximal batch size:     200
  | Minimal batch size:       3
  | Average batch size:     109.453
  | Standard deviation of batch sizes:      30.687

  Integration load balanced across     56 MPI tasks.
  Work distribution over tasks is as follows:
  Task      0 has      13194 integration points.
  Task      1 has      13274 integration points.
  Task      2 has      13073 integration points.
  Task      3 has      13294 integration points.
  Task      4 has      13173 integration points.
  Task      5 has      13208 integration points.
  Task      6 has      13045 integration points.
  Task      7 has      13248 integration points.
  Task      8 has      13157 integration points.
  Task      9 has      13139 integration points.
  Task     10 has      13220 integration points.
  Task     11 has      13150 integration points.
  Task     12 has      13190 integration points.
  Task     13 has      13077 integration points.
  Task     14 has      13295 integration points.
  Task     15 has      13206 integration points.
  Task     16 has      13158 integration points.
  Task     17 has      13197 integration points.
  Task     18 has      13087 integration points.
  Task     19 has      13114 integration points.
  Task     20 has      13102 integration points.
  Task     21 has      13190 integration points.
  Task     22 has      13206 integration points.
  Task     23 has      13130 integration points.
  Task     24 has      13197 integration points.
  Task     25 has      13182 integration points.
  Task     26 has      13141 integration points.
  Task     27 has      13045 integration points.
  Task     28 has      13262 integration points.
  Task     29 has      13244 integration points.
  Task     30 has      13127 integration points.
  Task     31 has      13267 integration points.
  Task     32 has      13101 integration points.
  Task     33 has      13219 integration points.
  Task     34 has      13066 integration points.
  Task     35 has      13175 integration points.
  Task     36 has      13214 integration points.
  Task     37 has      13133 integration points.
  Task     38 has      13213 integration points.
  Task     39 has      13137 integration points.
  Task     40 has      13244 integration points.
  Task     41 has      12973 integration points.
  Task     42 has      13189 integration points.
  Task     43 has      13205 integration points.
  Task     44 has      13154 integration points.
  Task     45 has      13274 integration points.
  Task     46 has      13138 integration points.
  Task     47 has      13131 integration points.
  Task     48 has      13111 integration points.
  Task     49 has      13273 integration points.
  Task     50 has      13193 integration points.
  Task     51 has      13082 integration points.
  Task     52 has      13224 integration points.
  Task     53 has      13121 integration points.
  Task     54 has      13254 integration points.
  Task     55 has      12968 integration points.
  Initializing partition tables, free-atom densities, potentials, etc. across the integration grid (initialize_grid_storage).
  | initialize_grid_storage: Actual outermost partition radius vs. multipole_radius_free
  | (-- VB: in principle, multipole_radius_free should be larger, hence this output)
  | Species        1: Confinement radius =              6.000000000000000 AA, multipole_radius_free =              6.071692442739658 AA.
  | Species        1: outer_partition_radius set to              6.071692442739658 AA .
  | Species        2: Confinement radius =              6.000000000000000 AA, multipole_radius_free =              6.029870734432609 AA.
  | Species        2: outer_partition_radius set to              6.029870734432609 AA .
  | The sparse table of interatomic distances needs     22.8840 kbyte instead of    15.4880 kbyte of memory.
  | Using the partition_type stratmann_smoother will reduce your memory usage.
  | Net number of integration points:   737384
  | of which are non-zero points    :   594078
  Renormalizing the initial density to the exact electron count on the 3D integration grid.
  | Initial density: Formal number of electrons (from input files) :     184.0000000000
  | Integrated number of electrons on 3D grid     :     183.9999522820
  | Charge integration error                      :      -0.0000477180
  | Normalization factor for density and gradient :       1.0000002593
  Obtaining max. number of non-zero basis functions in each batch (get_n_compute_maxes).
  | Maximal number of non-zero basis functions:      910
  Selecting the method for density update.
  Loop over occupied states selected for charge density update.
  Hamiltonian matrix size:
  | Size of matrix non-packed:                887778
  | Size of matrix packed:          776620
  Allocating        2.131 MB for KS_eigenvector
  use_local_index: Max. local matrix size =       613337
  Task:     0 matrix size:     180348
  Task:     1 matrix size:     233198
  Task:     2 matrix size:     299057
  Task:     3 matrix size:     356739
  Task:     4 matrix size:     452257
  Task:     5 matrix size:     473289
  Task:     6 matrix size:     547978
  Task:     7 matrix size:     311808
  Task:     8 matrix size:     278942
  Task:     9 matrix size:     231801
  Task:    10 matrix size:     543573
  Task:    11 matrix size:     613337
  Task:    12 matrix size:     580305
  Task:    13 matrix size:     538749
  Task:    14 matrix size:     242050
  Task:    15 matrix size:     592671
  Task:    16 matrix size:     497136
  Task:    17 matrix size:     249338
  Task:    18 matrix size:     222065
  Task:    19 matrix size:     447470
  Task:    20 matrix size:     355008
  Task:    21 matrix size:     149331
  Task:    22 matrix size:     127260
  Task:    23 matrix size:     101926
  Task:    24 matrix size:     331208
  Task:    25 matrix size:     282397
  Task:    26 matrix size:     240948
  Task:    27 matrix size:     197584
  Task:    28 matrix size:     208956
  Task:    29 matrix size:     281107
  Task:    30 matrix size:     331208
  Task:    31 matrix size:     166160
  Task:    32 matrix size:      85078
  Task:    33 matrix size:     196862
  Task:    34 matrix size:      93528
  Task:    35 matrix size:     417321
  Task:    36 matrix size:     342211
  Task:    37 matrix size:     159892
  Task:    38 matrix size:     471071
  Task:    39 matrix size:     583876
  Task:    40 matrix size:     382703
  Task:    41 matrix size:     184397
  Task:    42 matrix size:     584276
  Task:    43 matrix size:     596841
  Task:    44 matrix size:     582951
  Task:    45 matrix size:     293845
  Task:    46 matrix size:     309245
  Task:    47 matrix size:     393777
  Task:    48 matrix size:     234097
  Task:    49 matrix size:     507103
  Task:    50 matrix size:     513191
  Task:    51 matrix size:     437834
  Task:    52 matrix size:     331198
  Task:    53 matrix size:     274888
  Task:    54 matrix size:     237435
  Task:    55 matrix size:     173092
  Integrating Hamiltonian matrix: batch-based integration.
  Time summed over all CPUs for integration: real work      121.397 s, elapsed      228.586 s
  Time get_set_sparse_local_matrix_scalapack:     0.013058 s
  Start compute_balanced_batch_distribution
  Done load balancing, time needed:      0.007 s
  Integrating overlap matrix with loadbalancing
  Time summed over all CPUs for integration: real work       34.123 s, elapsed       39.407 s
  Time get_set_full_local_matrix_scalapack:     0.013789 s

  Updating Kohn-Sham eigenvalues and eigenvectors using ELSI and the ELPA eigensolver.
  Overlap matrix is not singular
  | Lowest and highest eigenvalues :  0.11E+02,  0.84E-04
  Finished singularity check of overlap matrix
  | Time :     0.173 s
  Finished Cholesky decomposition
  | Time :     0.018 s
  Finished transformation to standard eigenproblem
  | Time :     0.012 s
  Starting ELPA eigensolver
  Finished solving standard eigenproblem
  | Time :     0.094 s
  Finished back-transformation of eigenvectors
  | Time :     0.003 s

  Obtaining occupation numbers and chemical potential using ELSI.
  | Chemical potential (Fermi level):    -8.15319202 eV
  Writing Kohn-Sham eigenvalues.

  State    Occupation    Eigenvalue [Ha]    Eigenvalue [eV]
      1       2.00000         -10.174554         -276.86370
      2       2.00000         -10.174554         -276.86370
      3       2.00000         -10.172830         -276.81679
      4       2.00000         -10.172830         -276.81678
      5       2.00000         -10.171928         -276.79225
      6       2.00000         -10.171928         -276.79225
      7       2.00000         -10.170157         -276.74404
      8       2.00000         -10.170157         -276.74404
      9       2.00000         -10.169481         -276.72565
     10       2.00000         -10.169481         -276.72565
     11       2.00000         -10.169020         -276.71312
     12       2.00000         -10.169020         -276.71312
     13       2.00000         -10.167749         -276.67852
     14       2.00000         -10.167749         -276.67852
     15       2.00000         -10.166680         -276.64945
     16       2.00000         -10.166680         -276.64944
     17       2.00000         -10.166245         -276.63760
     18       2.00000         -10.166245         -276.63760
     19       2.00000         -10.166217         -276.63685
     20       2.00000         -10.166217         -276.63685
     21       2.00000         -10.165792         -276.62527
     22       2.00000         -10.165792         -276.62527
     23       2.00000         -10.159485         -276.45366
     24       2.00000         -10.159485         -276.45366
     25       2.00000         -10.157419         -276.39743
     26       2.00000         -10.157418         -276.39741
     27       2.00000         -10.152676         -276.26836
     28       2.00000         -10.152676         -276.26836
     29       2.00000          -1.017234          -27.68034
     30       2.00000          -1.010479          -27.49654
     31       2.00000          -0.987163          -26.86208
     32       2.00000          -0.981847          -26.71742
     33       2.00000          -0.943844          -25.68329
     34       2.00000          -0.939299          -25.55962
     35       2.00000          -0.918975          -25.00660
     36       2.00000          -0.903224          -24.57797
     37       2.00000          -0.897672          -24.42691
     38       2.00000          -0.879319          -23.92748
     39       2.00000          -0.873016          -23.75599
     40       2.00000          -0.865972          -23.56430
     41       2.00000          -0.853950          -23.23716
     42       2.00000          -0.834030          -22.69510
     43       2.00000          -0.785757          -21.38153
     44       2.00000          -0.781297          -21.26018
     45       2.00000          -0.767150          -20.87522
     46       2.00000          -0.760440          -20.69263
     47       2.00000          -0.759878          -20.67733
     48       2.00000          -0.739729          -20.12906
     49       2.00000          -0.732701          -19.93782
     50       2.00000          -0.716376          -19.49358
     51       2.00000          -0.679600          -18.49284
     52       2.00000          -0.674417          -18.35182
     53       2.00000          -0.669075          -18.20646
     54       2.00000          -0.665506          -18.10934
     55       2.00000          -0.645814          -17.57350
     56       2.00000          -0.639836          -17.41083
     57       2.00000          -0.623139          -16.95649
     58       2.00000          -0.619411          -16.85504
     59       2.00000          -0.611251          -16.63300
     60       2.00000          -0.605398          -16.47371
     61       2.00000          -0.601376          -16.36426
     62       2.00000          -0.597591          -16.26129
     63       2.00000          -0.580744          -15.80286
     64       2.00000          -0.577786          -15.72237
     65       2.00000          -0.574003          -15.61942
     66       2.00000          -0.570402          -15.52144
     67       2.00000          -0.565693          -15.39330
     68       2.00000          -0.565373          -15.38459
     69       2.00000          -0.542510          -14.76245
     70       2.00000          -0.537810          -14.63455
     71       2.00000          -0.532712          -14.49583
     72       2.00000          -0.528428          -14.37926
     73       2.00000          -0.526654          -14.33098
     74       2.00000          -0.521576          -14.19281
     75       2.00000          -0.513606          -13.97593
     76       2.00000          -0.507279          -13.80376
     77       2.00000          -0.506964          -13.79520
     78       2.00000          -0.499415          -13.58979
     79       2.00000          -0.493670          -13.43345
     80       2.00000          -0.492180          -13.39290
     81       2.00000          -0.489842          -13.32928
     82       2.00000          -0.470970          -12.81576
     83       2.00000          -0.456236          -12.41481
     84       2.00000          -0.453524          -12.34102
     85       2.00000          -0.433099          -11.78523
     86       2.00000          -0.420661          -11.44676
     87       2.00000          -0.414388          -11.27608
     88       2.00000          -0.395693          -10.76736
     89       2.00000          -0.391574          -10.65528
     90       2.00000          -0.379973          -10.33959
     91       2.00000          -0.369166          -10.04551
     92       2.00000          -0.340309           -9.26028
     93       0.00000          -0.266145           -7.24217
     94       0.00000          -0.244435           -6.65142
     95       0.00000          -0.228965           -6.23045
     96       0.00000          -0.215690           -5.86922
     97       0.00000          -0.208770           -5.68092
     98       0.00000          -0.192016           -5.22502
     99       0.00000          -0.189369           -5.15299
    100       0.00000          -0.167027           -4.54505
    101       0.00000          -0.135492           -3.68693
    102       0.00000          -0.123798           -3.36870
    103       0.00000          -0.075068           -2.04269
    104       0.00000          -0.074291           -2.02155
    105       0.00000          -0.068374           -1.86055
    106       0.00000          -0.067040           -1.82426
    107       0.00000          -0.064643           -1.75903
    108       0.00000          -0.062591           -1.70318
    109       0.00000          -0.057370           -1.56111
    110       0.00000          -0.039847           -1.08430
    111       0.00000          -0.036161           -0.98400
    112       0.00000          -0.030002           -0.81639
    113       0.00000          -0.024145           -0.65703
    114       0.00000          -0.018221           -0.49582
    115       0.00000          -0.017815           -0.48476
    116       0.00000          -0.014485           -0.39415
    117       0.00000          -0.011519           -0.31344
    118       0.00000          -0.010176           -0.27691
    119       0.00000          -0.005777           -0.15721
    120       0.00000          -0.003499           -0.09521
    121       0.00000           0.005321            0.14479
    122       0.00000           0.007445            0.20260
    123       0.00000           0.016506            0.44916
    124       0.00000           0.017377            0.47284
    125       0.00000           0.018146            0.49377
    126       0.00000           0.021856            0.59473
    127       0.00000           0.027191            0.73990
    128       0.00000           0.029756            0.80971
    129       0.00000           0.031250            0.85037
    130       0.00000           0.039151            1.06536
    131       0.00000           0.042960            1.16901
    132       0.00000           0.046296            1.25978
    133       0.00000           0.048362            1.31600
    134       0.00000           0.053359            1.45196
    135       0.00000           0.055083            1.49888
    136       0.00000           0.056817            1.54606
    137       0.00000           0.060872            1.65640
    138       0.00000           0.066663            1.81399
    139       0.00000           0.066843            1.81888
    140       0.00000           0.068803            1.87223
    141       0.00000           0.071957            1.95806
    142       0.00000           0.074711            2.03298
    143       0.00000           0.077654            2.11306
    144       0.00000           0.080509            2.19075
    145       0.00000           0.084193            2.29102
    146       0.00000           0.085799            2.33472
    147       0.00000           0.089858            2.44517
    148       0.00000           0.091810            2.49827
    149       0.00000           0.097129            2.64301
    150       0.00000           0.098957            2.69276
    151       0.00000           0.099787            2.71535
    152       0.00000           0.104740            2.85012
    153       0.00000           0.107704            2.93078
    154       0.00000           0.110489            3.00656
    155       0.00000           0.110610            3.00984
    156       0.00000           0.113982            3.10162
    157       0.00000           0.122028            3.32054
    158       0.00000           0.125065            3.40318
    159       0.00000           0.131939            3.59025
    160       0.00000           0.133416            3.63043
    161       0.00000           0.135330            3.68252
    162       0.00000           0.139701            3.80145
    163       0.00000           0.143665            3.90933
    164       0.00000           0.145800            3.96742
    165       0.00000           0.147759            4.02074
    166       0.00000           0.149847            4.07754
    167       0.00000           0.155300            4.22592
    168       0.00000           0.157244            4.27882
    169       0.00000           0.160418            4.36519
    170       0.00000           0.168051            4.57290
    171       0.00000           0.168598            4.58779
    172       0.00000           0.170781            4.64720
    173       0.00000           0.171014            4.65353
    174       0.00000           0.175372            4.77210
    175       0.00000           0.177972            4.84287
    176       0.00000           0.179060            4.87248
    177       0.00000           0.181982            4.95199
    178       0.00000           0.185676            5.05251
    179       0.00000           0.192252            5.23144
    180       0.00000           0.193533            5.26631
    181       0.00000           0.198498            5.40141
    182       0.00000           0.200907            5.46695
    183       0.00000           0.201881            5.49345
    184       0.00000           0.203476            5.53686
    185       0.00000           0.210281            5.72203
    186       0.00000           0.216055            5.87915
    187       0.00000           0.218401            5.94299
    188       0.00000           0.223561            6.08341
    189       0.00000           0.228069            6.20608
    190       0.00000           0.228823            6.22659
    191       0.00000           0.229822            6.25377
    192       0.00000           0.234822            6.38983
    193       0.00000           0.240694            6.54961
    194       0.00000           0.244598            6.65585
    195       0.00000           0.246064            6.69573
    196       0.00000           0.252926            6.88246
    197       0.00000           0.253727            6.90426
    198       0.00000           0.262039            7.13045
    199       0.00000           0.265801            7.23281
    200       0.00000           0.271653            7.39204

  Highest occupied state (VBM) at     -9.26028365 eV
  | Occupation number:      2.00000000

  Lowest unoccupied state (CBM) at    -7.24216580 eV
  | Occupation number:      0.00000000

  Overall HOMO-LUMO gap:      2.01811786 eV.
  Calculating total energy contributions from superposition of free atom densities.

  Total energy components:
  | Sum of eigenvalues            :        -651.78895610 Ha      -17736.07989737 eV
  | XC energy correction          :        -154.08719938 Ha       -4192.92602883 eV
  | XC potential correction       :         197.92156202 Ha        5385.71972495 eV
  | Free-atom electrostatic energy:        -469.52070883 Ha      -12776.30853878 eV
  | Hartree energy correction     :           0.00000000 Ha           0.00000000 eV
  | Entropy correction            :           0.00000000 Ha           0.00000000 eV
  | ---------------------------
  | Total energy                  :       -1077.47530230 Ha      -29319.59474003 eV
  | Total energy, T -> 0          :       -1077.47530230 Ha      -29319.59474003 eV  <-- do not rely on this value for anything but (periodic) metals
  | Electronic free energy        :       -1077.47530230 Ha      -29319.59474003 eV

  Derived energy quantities:
  | Kinetic energy                :        1067.63838161 Ha       29051.91850889 eV
  | Electrostatic energy          :       -1991.02648452 Ha      -54178.58722009 eV
  | Energy correction for multipole
  | error in Hartree potential    :           0.00000000 Ha           0.00000000 eV
  | Sum of eigenvalues per atom                           :        -403.09272494 eV
  | Total energy (T->0) per atom                          :        -666.35442591 eV  <-- do not rely on this value for anything but (periodic) metals
  | Electronic free energy per atom                       :        -666.35442591 eV
  Initialize hartree_potential_storage
  Max. number of atoms included in rho_multipole:           44

  End scf initialization - timings             :  max(cpu_time)    wall_clock(cpu1)
  | Time for scf. initialization               :        6.476 s           6.993 s
  | Boundary condition initialization          :        0.001 s           0.016 s
  | Integration                                :        4.834 s           4.839 s
  | Solution of K.-S. eqns.                    :        0.234 s           0.446 s
  | Grid partitioning                          :        0.696 s           0.716 s
  | Preloading free-atom quantities on grid    :        0.029 s           0.074 s
  | Free-atom superposition energy             :        0.082 s           0.083 s
  | Total energy evaluation                    :        0.001 s           0.017 s

  Partial memory accounting:
  | Current value for overall tracked memory usage on task 0  :           3.664 MB
  | Peak value for overall tracked memory usage on task 0     :          24.858 MB after allocating zora_vector2
  | Largest tracked array allocation on task 0 so far         :           6.625 MB  when allocating hamiltonian_shell
  Note:  These values currently only include a subset of arrays which are explicitly tracked.
  The "true" memory usage will be greater.
------------------------------------------------------------

------------------------------------------------------------
          Begin self-consistency iteration #    1

  Date     :  20210620, Time     :  164537.814
------------------------------------------------------------
  Evaluating new KS density.
  Integration grid: deviation in total charge (<rho> - N_e) =   8.526513E-14
  Pulay mixing of updated and previous charge densities.

  Evaluating partitioned Hartree potential by multipole expansion.
  | Analytical far-field extrapolation by fixed multipoles:
  | Hartree multipole sum: apparent total charge =  -0.557320E-04
  Summing up the Hartree potential with load balancing.
  Time summed over all CPUs for potential: real work       23.761 s, elapsed       36.159 s
  | RMS charge density error from multipole expansion :   0.127531E-01

  Start compute_balanced_batch_distribution
  Done load balancing, time needed:      0.006 s
  Integrating Hamiltonian matrix: batch-based integration with load balancing
  Time summed over all CPUs for integration: real work      133.048 s, elapsed      147.595 s
  Time get_set_full_local_matrix_scalapack:     0.014670 s
  Start compute_balanced_batch_distribution
  Done load balancing, time needed:      0.006 s

  Updating Kohn-Sham eigenvalues and eigenvectors using ELSI and the ELPA eigensolver.
  Finished transformation to standard eigenproblem
  | Time :     0.015 s
  Starting ELPA eigensolver
  Finished solving standard eigenproblem
  | Time :     0.078 s
  Finished back-transformation of eigenvectors
  | Time :     0.003 s

  Obtaining occupation numbers and chemical potential using ELSI.
  | Chemical potential (Fermi level):    -4.95574299 eV
  Writing Kohn-Sham eigenvalues.

  State    Occupation    Eigenvalue [Ha]    Eigenvalue [eV]
      1       2.00000         -10.001647         -272.15866
      2       2.00000         -10.001647         -272.15866
      3       2.00000          -9.994764         -271.97136
      4       2.00000          -9.994764         -271.97136
      5       2.00000          -9.988454         -271.79965
      6       2.00000          -9.988454         -271.79965
      7       2.00000          -9.977309         -271.49639
      8       2.00000          -9.977309         -271.49639
      9       2.00000          -9.967957         -271.24191
     10       2.00000          -9.967957         -271.24191
     11       2.00000          -9.960482         -271.03849
     12       2.00000          -9.960482         -271.03849
     13       2.00000          -9.955402         -270.90028
     14       2.00000          -9.955402         -270.90027
     15       2.00000          -9.954263         -270.86928
     16       2.00000          -9.954263         -270.86928
     17       2.00000          -9.953180         -270.83981
     18       2.00000          -9.953180         -270.83981
     19       2.00000          -9.951112         -270.78353
     20       2.00000          -9.951112         -270.78353
     21       2.00000          -9.950998         -270.78044
     22       2.00000          -9.950998         -270.78043
     23       2.00000          -9.949467         -270.73877
     24       2.00000          -9.949467         -270.73877
     25       2.00000          -9.943811         -270.58486
     26       2.00000          -9.943811         -270.58486
     27       2.00000          -9.943466         -270.57548
     28       2.00000          -9.943466         -270.57547
     29       2.00000          -0.878075          -23.89364
     30       2.00000          -0.862313          -23.46473
     31       2.00000          -0.837823          -22.79832
     32       2.00000          -0.833465          -22.67973
     33       2.00000          -0.802425          -21.83508
     34       2.00000          -0.798188          -21.71979
     35       2.00000          -0.774403          -21.07259
     36       2.00000          -0.758889          -20.65042
     37       2.00000          -0.754002          -20.51744
     38       2.00000          -0.738609          -20.09856
     39       2.00000          -0.731660          -19.90949
     40       2.00000          -0.720293          -19.60017
     41       2.00000          -0.708488          -19.27893
     42       2.00000          -0.691115          -18.80619
     43       2.00000          -0.650536          -17.70200
     44       2.00000          -0.643992          -17.52393
     45       2.00000          -0.631708          -17.18966
     46       2.00000          -0.621254          -16.90517
     47       2.00000          -0.621059          -16.89988
     48       2.00000          -0.600673          -16.34513
     49       2.00000          -0.593619          -16.15321
     50       2.00000          -0.577332          -15.71000
     51       2.00000          -0.549102          -14.94183
     52       2.00000          -0.545529          -14.84460
     53       2.00000          -0.537776          -14.63363
     54       2.00000          -0.531810          -14.47128
     55       2.00000          -0.507327          -13.80506
     56       2.00000          -0.496668          -13.51502
     57       2.00000          -0.496173          -13.50156
     58       2.00000          -0.492083          -13.39027
     59       2.00000          -0.482197          -13.12123
     60       2.00000          -0.480577          -13.07717
     61       2.00000          -0.455617          -12.39796
     62       2.00000          -0.455146          -12.38516
     63       2.00000          -0.445603          -12.12548
     64       2.00000          -0.445164          -12.11352
     65       2.00000          -0.442747          -12.04776
     66       2.00000          -0.439649          -11.96347
     67       2.00000          -0.430745          -11.72117
     68       2.00000          -0.427177          -11.62407
     69       2.00000          -0.425292          -11.57277
     70       2.00000          -0.413498          -11.25185
     71       2.00000          -0.405738          -11.04070
     72       2.00000          -0.405318          -11.02926
     73       2.00000          -0.401828          -10.93430
     74       2.00000          -0.388982          -10.58473
     75       2.00000          -0.382298          -10.40285
     76       2.00000          -0.378701          -10.30499
     77       2.00000          -0.376025          -10.23216
     78       2.00000          -0.373893          -10.17415
     79       2.00000          -0.368447          -10.02596
     80       2.00000          -0.355938           -9.68556
     81       2.00000          -0.352221           -9.58443
     82       2.00000          -0.340753           -9.27235
     83       2.00000          -0.336313           -9.15155
     84       2.00000          -0.335981           -9.14250
     85       2.00000          -0.309748           -8.42867
     86       2.00000          -0.297708           -8.10105
     87       2.00000          -0.291556           -7.93364
     88       2.00000          -0.277115           -7.54068
     89       2.00000          -0.272433           -7.41328
     90       2.00000          -0.255671           -6.95716
     91       2.00000          -0.246098           -6.69666
     92       2.00000          -0.219586           -5.97523
     93       0.00000          -0.148284           -4.03502
     94       0.00000          -0.127170           -3.46047
     95       0.00000          -0.108502           -2.95250
     96       0.00000          -0.099200           -2.69936
     97       0.00000          -0.089312           -2.43029
     98       0.00000          -0.070242           -1.91139
     99       0.00000          -0.069582           -1.89342
    100       0.00000          -0.044953           -1.22324
    101       0.00000          -0.030364           -0.82624
    102       0.00000          -0.026188           -0.71262
    103       0.00000          -0.023956           -0.65187
    104       0.00000          -0.018001           -0.48983
    105       0.00000          -0.016647           -0.45299
    106       0.00000          -0.013675           -0.37213
    107       0.00000          -0.005475           -0.14899
    108       0.00000           0.001360            0.03702
    109       0.00000           0.004882            0.13286
    110       0.00000           0.018537            0.50442
    111       0.00000           0.020636            0.56152
    112       0.00000           0.030603            0.83274
    113       0.00000           0.042121            1.14617
    114       0.00000           0.043679            1.18856
    115       0.00000           0.048313            1.31466
    116       0.00000           0.052500            1.42860
    117       0.00000           0.053941            1.46780
    118       0.00000           0.058003            1.57835
    119       0.00000           0.069317            1.88622
    120       0.00000           0.072195            1.96452
    121       0.00000           0.076458            2.08052
    122       0.00000           0.082649            2.24898
    123       0.00000           0.083743            2.27875
    124       0.00000           0.087084            2.36968
    125       0.00000           0.092563            2.51878
    126       0.00000           0.099657            2.71181
    127       0.00000           0.100116            2.72430
    128       0.00000           0.102846            2.79858
    129       0.00000           0.105302            2.86543
    130       0.00000           0.109693            2.98489
    131       0.00000           0.112792            3.06922
    132       0.00000           0.114669            3.12029
    133       0.00000           0.118063            3.21266
    134       0.00000           0.118699            3.22997
    135       0.00000           0.119118            3.24136
    136       0.00000           0.126905            3.45326
    137       0.00000           0.133616            3.63586
    138       0.00000           0.136352            3.71034
    139       0.00000           0.138024            3.75582
    140       0.00000           0.142019            3.86454
    141       0.00000           0.144228            3.92464
    142       0.00000           0.146181            3.97779
    143       0.00000           0.146689            3.99162
    144       0.00000           0.150158            4.08601
    145       0.00000           0.150336            4.09086
    146       0.00000           0.155316            4.22638
    147       0.00000           0.155450            4.23001
    148       0.00000           0.156911            4.26978
    149       0.00000           0.160631            4.37100
    150       0.00000           0.168469            4.58426
    151       0.00000           0.170461            4.63849
    152       0.00000           0.172368            4.69038
    153       0.00000           0.174433            4.74655
    154       0.00000           0.178113            4.84671
    155       0.00000           0.178531            4.85808
    156       0.00000           0.190020            5.17070
    157       0.00000           0.190528            5.18452
    158       0.00000           0.192697            5.24354
    159       0.00000           0.193084            5.25408
    160       0.00000           0.199582            5.43090
    161       0.00000           0.204773            5.57216
    162       0.00000           0.208749            5.68036
    163       0.00000           0.213191            5.80122
    164       0.00000           0.218713            5.95149
    165       0.00000           0.221494            6.02715
    166       0.00000           0.222205            6.04651
    167       0.00000           0.226343            6.15911
    168       0.00000           0.227794            6.19859
    169       0.00000           0.227906            6.20164
    170       0.00000           0.228242            6.21079
    171       0.00000           0.235198            6.40005
    172       0.00000           0.236257            6.42889
    173       0.00000           0.241154            6.56214
    174       0.00000           0.245095            6.66937
    175       0.00000           0.247504            6.73493
    176       0.00000           0.252453            6.86960
    177       0.00000           0.253863            6.90795
    178       0.00000           0.258440            7.03250
    179       0.00000           0.268503            7.30634
    180       0.00000           0.274242            7.46250
    181       0.00000           0.275681            7.50165
    182       0.00000           0.276860            7.53374
    183       0.00000           0.283287            7.70863
    184       0.00000           0.286694            7.80133
    185       0.00000           0.287537            7.82428
    186       0.00000           0.290495            7.90477
    187       0.00000           0.291085            7.92084
    188       0.00000           0.293266            7.98018
    189       0.00000           0.296847            8.07762
    190       0.00000           0.297675            8.10015
    191       0.00000           0.299768            8.15710
    192       0.00000           0.308764            8.40189
    193       0.00000           0.316726            8.61855
    194       0.00000           0.320427            8.71926
    195       0.00000           0.327495            8.91160
    196       0.00000           0.330385            8.99024
    197       0.00000           0.331059            9.00858
    198       0.00000           0.336436            9.15490
    199       0.00000           0.339350            9.23418
    200       0.00000           0.343204            9.33906

  Highest occupied state (VBM) at     -5.97523328 eV
  | Occupation number:      2.00000000

  Lowest unoccupied state (CBM) at    -4.03502283 eV
  | Occupation number:      0.00000000

  Overall HOMO-LUMO gap:      1.94021045 eV.

  Total energy components:
  | Sum of eigenvalues            :        -623.37354450 Ha      -16962.85720658 eV
  | XC energy correction          :        -155.97738138 Ha       -4244.36049808 eV
  | XC potential correction       :         200.37525535 Ha        5452.48811752 eV
  | Free-atom electrostatic energy:        -469.52070883 Ha      -12776.30853878 eV
  | Hartree energy correction     :         -28.07658733 Ha        -764.00281323 eV
  | Entropy correction            :           0.00000000 Ha           0.00000000 eV
  | ---------------------------
  | Total energy                  :       -1076.57296670 Ha      -29295.04093915 eV
  | Total energy, T -> 0          :       -1076.57296670 Ha      -29295.04093915 eV  <-- do not rely on this value for anything but (periodic) metals
  | Electronic free energy        :       -1076.57296670 Ha      -29295.04093915 eV

  Derived energy quantities:
  | Kinetic energy                :        1075.92097947 Ha       29277.29946386 eV
  | Electrostatic energy          :       -1996.51656478 Ha      -54327.97990493 eV
  | Energy correction for multipole
  | error in Hartree potential    :          -0.06795066 Ha          -1.84903161 eV
  | Sum of eigenvalues per atom                           :        -385.51948197 eV
  | Total energy (T->0) per atom                          :        -665.79638498 eV  <-- do not rely on this value for anything but (periodic) metals
  | Electronic free energy per atom                       :        -665.79638498 eV

  Self-consistency convergence accuracy:
  | Change of charge density      :  0.1032E+01
  | Change of sum of eigenvalues  :  0.7732E+03 eV
  | Change of total energy        :  0.2455E+02 eV

  End self-consistency iteration #     1       :  max(cpu_time)    wall_clock(cpu1)
  | Time for this iteration                    :        4.590 s           4.829 s
  | Charge density update                      :        1.125 s           1.142 s
  | Density mixing                             :        0.004 s           0.131 s
  | Hartree multipole update                   :        0.015 s           0.016 s
  | Hartree multipole summation                :        0.656 s           0.748 s
  | Integration                                :        2.640 s           2.641 s
  | Solution of K.-S. eqns.                    :        0.138 s           0.138 s
  | Total energy evaluation                    :        0.000 s           0.001 s

  Partial memory accounting:
  | Current value for overall tracked memory usage on task 0  :           3.664 MB
  | Peak value for overall tracked memory usage on task 0     :          25.187 MB after allocating zora_vector2
  | Largest tracked array allocation on task 0 so far         :           6.625 MB  when allocating hamiltonian_shell
  Note:  These values currently only include a subset of arrays which are explicitly tracked.
  The "true" memory usage will be greater.
------------------------------------------------------------

------------------------------------------------------------
          Begin self-consistency iteration #    2

  Date     :  20210620, Time     :  164542.650
------------------------------------------------------------
  Evaluating new KS density.
  Integration grid: deviation in total charge (<rho> - N_e) =   1.705303E-13
[...]
     30       2.00000          -0.811228          -22.07463
     31       2.00000          -0.786799          -21.40990
     32       2.00000          -0.779993          -21.22470
     33       2.00000          -0.746455          -20.31209
     34       2.00000          -0.741914          -20.18850
     35       2.00000          -0.721049          -19.62074
     36       2.00000          -0.704658          -19.17471
     37       2.00000          -0.699283          -19.02847
     38       2.00000          -0.681171          -18.53562
     39       2.00000          -0.675038          -18.36872
     40       2.00000          -0.664513          -18.08233
     41       2.00000          -0.652312          -17.75032
     42       2.00000          -0.632664          -17.21566
     43       2.00000          -0.591755          -16.10248
     44       2.00000          -0.585093          -15.92119
     45       2.00000          -0.571757          -15.55829
     46       2.00000          -0.564314          -15.35577
     47       2.00000          -0.562701          -15.31186
     48       2.00000          -0.541819          -14.74365
     49       2.00000          -0.534594          -14.54704
     50       2.00000          -0.516768          -14.06198
     51       2.00000          -0.489514          -13.32035
     52       2.00000          -0.483352          -13.15268
     53       2.00000          -0.479124          -13.03762
     54       2.00000          -0.471433          -12.82834
     55       2.00000          -0.447377          -12.17374
     56       2.00000          -0.436123          -11.86751
     57       2.00000          -0.433948          -11.80832
     58       2.00000          -0.433263          -11.78968
     59       2.00000          -0.421794          -11.47759
     60       2.00000          -0.418197          -11.37973
     61       2.00000          -0.395519          -10.76263
     62       2.00000          -0.393890          -10.71830
     63       2.00000          -0.386213          -10.50938
     64       2.00000          -0.384391          -10.45981
     65       2.00000          -0.382619          -10.41160
     66       2.00000          -0.381934          -10.39296
     67       2.00000          -0.380108          -10.34326
     68       2.00000          -0.368959          -10.03988
     69       2.00000          -0.367173           -9.99127
     70       2.00000          -0.366703           -9.97850
     71       2.00000          -0.352114           -9.58150
     72       2.00000          -0.342091           -9.30876
     73       2.00000          -0.339606           -9.24114
     74       2.00000          -0.339093           -9.22718
     75       2.00000          -0.332756           -9.05474
     76       2.00000          -0.327362           -8.90799
     77       2.00000          -0.320297           -8.71571
     78       2.00000          -0.314929           -8.56965
     79       2.00000          -0.307887           -8.37802
     80       2.00000          -0.297971           -8.10821
     81       2.00000          -0.295011           -8.02765
     82       2.00000          -0.294057           -8.00169
     83       2.00000          -0.288145           -7.84083
     84       2.00000          -0.270937           -7.37258
     85       2.00000          -0.270314           -7.35563
     86       2.00000          -0.257793           -7.01490
     87       2.00000          -0.251535           -6.84462
     88       2.00000          -0.233594           -6.35642
     89       2.00000          -0.229774           -6.25246
     90       2.00000          -0.214837           -5.84602
     91       2.00000          -0.204138           -5.55487
     92       2.00000          -0.175319           -4.77066
     93       0.00000          -0.103894           -2.82709
     94       0.00000          -0.084903           -2.31032
     95       0.00000          -0.067311           -1.83163
     96       0.00000          -0.054806           -1.49135
     97       0.00000          -0.045573           -1.24010
     98       0.00000          -0.028646           -0.77949
     99       0.00000          -0.028170           -0.76653
    100       0.00000          -0.007618           -0.20731
    101       0.00000          -0.002911           -0.07920
    102       0.00000          -0.002756           -0.07500
    103       0.00000          -0.002300           -0.06258
    104       0.00000           0.006627            0.18033
    105       0.00000           0.008054            0.21917
    106       0.00000           0.023111            0.62887
    107       0.00000           0.025583            0.69615
    108       0.00000           0.026093            0.71004
    109       0.00000           0.039540            1.07593
    110       0.00000           0.040752            1.10891
    111       0.00000           0.042162            1.14730
    112       0.00000           0.054920            1.49445
    113       0.00000           0.064748            1.76189
    114       0.00000           0.069584            1.89347
    115       0.00000           0.077519            2.10941
    116       0.00000           0.081411            2.21531
    117       0.00000           0.088546            2.40945
    118       0.00000           0.093104            2.53349
    119       0.00000           0.094690            2.57665
    120       0.00000           0.098674            2.68507
    121       0.00000           0.099284            2.70166
    122       0.00000           0.103130            2.80630
    123       0.00000           0.113356            3.08457
    124       0.00000           0.116049            3.15786
    125       0.00000           0.118496            3.22445
    126       0.00000           0.119588            3.25415
    127       0.00000           0.132871            3.61560
    128       0.00000           0.133816            3.64132
    129       0.00000           0.134919            3.67134
    130       0.00000           0.135300            3.68171
    131       0.00000           0.138830            3.77775
    132       0.00000           0.148410            4.03843
    133       0.00000           0.148676            4.04568
    134       0.00000           0.158113            4.30248
    135       0.00000           0.159917            4.35156
    136       0.00000           0.161404            4.39203
    137       0.00000           0.165106            4.49275
    138       0.00000           0.166983            4.54383
    139       0.00000           0.167498            4.55785
    140       0.00000           0.170253            4.63283
    141       0.00000           0.175296            4.77004
    142       0.00000           0.176817            4.81143
    143       0.00000           0.180393            4.90875
    144       0.00000           0.182047            4.95375
    145       0.00000           0.185185            5.03915
    146       0.00000           0.185591            5.05020
    147       0.00000           0.195087            5.30860
    148       0.00000           0.195635            5.32350
    149       0.00000           0.198271            5.39523
    150       0.00000           0.198617            5.40466
    151       0.00000           0.201782            5.49076
    152       0.00000           0.205754            5.59884
    153       0.00000           0.207014            5.63313
    154       0.00000           0.212761            5.78951
    155       0.00000           0.212984            5.79558
    156       0.00000           0.214734            5.84322
    157       0.00000           0.216886            5.90178
    158       0.00000           0.222145            6.04487
    159       0.00000           0.227749            6.19738
    160       0.00000           0.232367            6.32304
    161       0.00000           0.242218            6.59107
    162       0.00000           0.242719            6.60472
    163       0.00000           0.247704            6.74036
    164       0.00000           0.248369            6.75847
    165       0.00000           0.248957            6.77446
    166       0.00000           0.252360            6.86706
    167       0.00000           0.252470            6.87007
    168       0.00000           0.258511            7.03444
    169       0.00000           0.259772            7.06876
    170       0.00000           0.262089            7.13181
    171       0.00000           0.264941            7.20941
    172       0.00000           0.272750            7.42192
    173       0.00000           0.276424            7.52188
    174       0.00000           0.277251            7.54438
    175       0.00000           0.280046            7.62045
    176       0.00000           0.282013            7.67397
    177       0.00000           0.290766            7.91214
    178       0.00000           0.295354            8.03698
    179       0.00000           0.297414            8.09305
    180       0.00000           0.304211            8.27801
    181       0.00000           0.309708            8.42758
    182       0.00000           0.315456            8.58399
    183       0.00000           0.316995            8.62586
    184       0.00000           0.318253            8.66010
    185       0.00000           0.318835            8.67594
    186       0.00000           0.321892            8.75912
    187       0.00000           0.325259            8.85073
    188       0.00000           0.326164            8.87538
    189       0.00000           0.327801            8.91993
    190       0.00000           0.338045            9.19868
    191       0.00000           0.341795            9.30072
    192       0.00000           0.342078            9.30841
    193       0.00000           0.349093            9.49930
    194       0.00000           0.353269            9.61294
    195       0.00000           0.355020            9.66058
    196       0.00000           0.366726            9.97912
    197       0.00000           0.367539           10.00124
    198       0.00000           0.368866           10.03737
    199       0.00000           0.373244           10.15648
    200       0.00000           0.378525           10.30018

  Highest occupied state (VBM) at     -4.77066221 eV
  | Occupation number:      2.00000000

  Lowest unoccupied state (CBM) at    -2.82709261 eV
  | Occupation number:      0.00000000

  Overall HOMO-LUMO gap:      1.94356961 eV.

  Total energy components:
  | Sum of eigenvalues            :        -612.98237940 Ha      -16680.09921745 eV
  | XC energy correction          :        -156.84905031 Ha       -4268.07981637 eV
  | XC potential correction       :         201.49001985 Ha        5482.82240306 eV
  | Free-atom electrostatic energy:        -469.52070883 Ha      -12776.30853878 eV
  | Hartree energy correction     :         -38.34512871 Ha       -1043.42404103 eV
  | Entropy correction            :           0.00000000 Ha           0.00000000 eV
  | ---------------------------
  | Total energy                  :       -1076.20724740 Ha      -29285.08921057 eV
  | Total energy, T -> 0          :       -1076.20724740 Ha      -29285.08921057 eV  <-- do not rely on this value for anything but (periodic) metals
  | Electronic free energy        :       -1076.20724740 Ha      -29285.08921057 eV

  Derived energy quantities:
  | Kinetic energy                :        1072.90298509 Ha       29195.17565843 eV
  | Electrostatic energy          :       -1992.26118218 Ha      -54212.18505263 eV
  | Energy correction for multipole
  | error in Hartree potential    :          -0.12931514 Ha          -3.51884387 eV
  | Sum of eigenvalues per atom                           :        -379.09316403 eV
  | Total energy (T->0) per atom                          :        -665.57020933 eV  <-- do not rely on this value for anything but (periodic) metals
  | Electronic free energy per atom                       :        -665.57020933 eV
  End evaluation of scaled ZORA corrections.
  | Time for scaled ZORA corrections           :        4.480 s           4.481 s
------------------------------------------------------------

  Energy and forces in a compact form:
  | Total energy uncorrected      :         -0.292850892105726E+05 eV
  | Total energy corrected        :         -0.292850892105726E+05 eV  <-- do not rely on this value for anything but (periodic) metals
  | Electronic free energy        :         -0.292850892105726E+05 eV

  ------------------------------------ 
  Start decomposition of the XC Energy 
  ------------------------------------ 
  X and C from original XC functional choice 
  Hartree-Fock Energy :          0.000000000 Ha              0.000000000 eV
  X Energy            :       -150.672662851 Ha          -4100.011762487 eV
  C Energy            :         -6.176387456 Ha           -168.068053884 eV
  Total XC Energy     :       -156.849050307 Ha          -4268.079816371 eV
  ------------------------------------ 
  LDA X and C from self-consistent density 
  X Energy LDA        :       -136.464654793 Ha          -3713.392192242 eV
  C Energy LDA        :        -11.893312610 Ha           -323.633502407 eV
  ------------------------------------ 
  End decomposition of the XC Energy 
  ------------------------------------ 

------------------------------------------------------------

------------------------------------------------------------------------------
  Final output of selected total energy values:

  The following output summarizes some interesting total energy values
  at the end of a run (AFTER all relaxation, molecular dynamics, etc.).

  | Total energy of the DFT / Hartree-Fock s.c.f. calculation      :         -29285.089210573 eV
  | Final zero-broadening corrected energy (caution - metals only) :         -29285.089210573 eV
  | For reference only, the value of 1 Hartree used in FHI-aims is :             27.211384500 eV

  Before relying on these values, please be sure to understand exactly which
  total energy value is referred to by a given number. Different objects may
  all carry the same name 'total energy'. Definitions:

  Total energy of the DFT / Hartree-Fock s.c.f. calculation:
  | Note that this energy does not include ANY quantities calculated after the
  | s.c.f. cycle, in particular not ANY RPA, MP2, etc. many-body perturbation terms.
  | Scalar relativistic effects have been included in the 'scaled ZORA' approximation.

  Final zero-broadening corrected energy:
  | For metallic systems only, a broadening of the occupation numbers at the Fermi
  | level can be extrapolated back to zero broadening by an electron-gas inspired
  | formula. For all systems that are not real metals, this value can be
  | meaningless and should be avoided.

------------------------------------------------------------------------------
  Methods described in the following list of references were used in this FHI-aims run.
  If you publish the results, please make sure to cite these reference if they apply.
  FHI-aims is an academic code, and for our developers (often, Ph.D. students
  and postdocs), scientific credit in the community is essential.
  Thank you for helping us!

  For any use of FHI-aims, please cite:

    Volker Blum, Ralf Gehrke, Felix Hanke, Paula Havu, Ville Havu,
    Xinguo Ren, Karsten Reuter, and Matthias Scheffler
    'Ab initio molecular simulations with numeric atom-centered orbitals'
    Computer Physics Communications 180, 2175-2196 (2009)
    http://dx.doi.org/10.1016/j.cpc.2009.06.022


  The scalable eigensolver library ELPA was used in your run.
  ELPA is essential especially for large systems on hundreds or thousands of CPUs.
  For ELPA, please cite:

    Andreas Marek, Volker Blum, Rainer Johanni, Ville Havu, Bruno Lang,
    Thomas Auckenthaler, Alexander Heinecke, Hans-Joachim Bungartz, and Hermann Lederer,
    'The ELPA Library - Scalable Parallel Eigenvalue Solutions
    for Electronic Structure Theory and Computational Science'
    The Journal of Physics: Condensed Matter 26, 213201 (2014).
    http://dx.doi.org/10.1088/0953-8984/26/21/213201


  The ELSI infrastructure was used in your run to solve the Kohn-Sham electronic structure.
  Please check out http://elsi-interchange.org to learn more.
  If scalability is important for your project, please acknowledge ELSI by citing:

    V. W-z. Yu, F. Corsetti, A. Garcia, W. P. Huhn, M. Jacquelin, W. Jia,
    B. Lange, L. Lin, J. Lu, W. Mi, A. Seifitokaldani, A. Vazquez-Mayagoitia,
    C. Yang, H. Yang, and V. Blum
    'ELSI: A unified software interface for Kohn-Sham electronic structure solvers'
    Computer Physics Communications 222, 267-285 (2018).
    http://dx.doi.org/10.1016/j.cpc.2017.09.007


  For the real-space grid partitioning and parallelization used in this calculation, please cite:

    Ville Havu, Volker Blum, Paula Havu, and Matthias Scheffler,
    'Efficient O(N) integration for all-electron electronic structure calculation'
    'using numerically tabulated basis functions'
    Journal of Computational Physics 228, 8367-8379 (2009).
    http://dx.doi.org/10.1016/j.jcp.2009.08.008

  Of course, there are many other important community references, e.g., those cited in the
  above references. Our list is limited to references that describe implementations in the
  FHI-aims code. The reason is purely practical (length of this list) - please credit others as well.

------------------------------------------------------------
          Leaving FHI-aims.
          Date     :  20210620, Time     :  164650.683

          Computational steps:
          | Number of self-consistency cycles          :           16
          | Number of SCF (re)initializations          :            1

          Detailed time accounting                     :  max(cpu_time)    wall_clock(cpu1)
          | Total time                                 :       78.667 s          80.671 s
          | Preparation time                           :        0.231 s           0.257 s
          | Boundary condition initalization           :        0.001 s           0.016 s
          | Grid partitioning                          :        0.696 s           0.716 s
          | Preloading free-atom quantities on grid    :        0.029 s           0.074 s
          | Free-atom superposition energy             :        0.082 s           0.083 s
          | Total time for integrations                :       45.166 s          45.170 s
          | Total time for solution of K.-S. equations :        2.269 s           2.489 s
          | Total time for density update              :       16.993 s          16.967 s
          | Total time for mixing                      :        0.113 s           0.264 s
          | Total time for Hartree multipole update    :        0.142 s           0.149 s
          | Total time for Hartree multipole sum       :        7.610 s           7.706 s
          | Total time for total energy evaluation     :        0.007 s           0.046 s
          | Total time for scaled ZORA corrections     :        4.480 s           4.481 s

          Partial memory accounting:
          | Residual value for overall tracked memory usage across tasks :     0.000000 MB (should be 0.000000 MB)
          | Peak values for overall tracked memory usage (after allocating zora_vector2):
          |   Minimum:       24.087 MB (on task 35)
          |   Maximum:       30.169 MB (on task 12)
          |   Average:       27.294 MB
          | Largest tracked array allocation (hamiltonian_shell):
          |   Minimum:        6.625 MB (on task  1)
          |   Maximum:        6.625 MB (on task  1)
          |   Average:        6.625 MB
          Note:  These values currently only include a subset of arrays which are explicitly tracked.
          The "true" memory usage will be greater.

          Have a nice day.
------------------------------------------------------------
