  MPI-parallelism will be employed.
------------------------------------------------------------
          Invoking FHI-aims ...
          Version 180607
          Git rev. (modified): 6724847 Fix JSON memory corruption in scf_solver
          Compiled on 2018/06/27 at 16:00:31 on host coe.psc.edu.

          When using FHI-aims, please cite the following reference:

          Volker Blum, Ralf Gehrke, Felix Hanke, Paula Havu,
          Ville Havu, Xinguo Ren, Karsten Reuter, and Matthias Scheffler,
          'Ab Initio Molecular Simulations with Numeric Atom-Centered Orbitals',
          Computer Physics Communications 180, 2175-2196 (2009)

          For any questions about FHI-aims, please visit the aimsclub website
          with its forums and wiki. Contributions to both the forums and the
          wiki are warmly encouraged - they are for you, and everyone is welcome there.

------------------------------------------------------------



  Date     :  20210620, Time     :  163454.844
  Time zero on CPU 1             :   0.292610000000000E+00  s.
  Internal wall clock time zero  :           393438894.844  s.

  FHI-aims created a unique identifier for this run for later identification
  aims_uuid : CF3837D7-9304-4050-A03B-A1F4E56F1C04

  Using       56 parallel tasks.
  Task        0 on host d021 reporting.
  Task        1 on host d021 reporting.
  Task        2 on host d021 reporting.
  Task        3 on host d021 reporting.
  Task        4 on host d021 reporting.
  Task        5 on host d021 reporting.
  Task        6 on host d021 reporting.
  Task        7 on host d021 reporting.
  Task        8 on host d021 reporting.
  Task        9 on host d021 reporting.
  Task       10 on host d021 reporting.
  Task       11 on host d021 reporting.
  Task       12 on host d021 reporting.
  Task       13 on host d021 reporting.
  Task       14 on host d021 reporting.
  Task       15 on host d021 reporting.
  Task       16 on host d021 reporting.
  Task       17 on host d021 reporting.
  Task       18 on host d021 reporting.
  Task       19 on host d021 reporting.
  Task       20 on host d021 reporting.
  Task       21 on host d021 reporting.
  Task       22 on host d021 reporting.
  Task       23 on host d021 reporting.
  Task       24 on host d021 reporting.
  Task       25 on host d021 reporting.
  Task       26 on host d021 reporting.
  Task       27 on host d021 reporting.
  Task       28 on host d021 reporting.
  Task       29 on host d021 reporting.
  Task       30 on host d021 reporting.
  Task       31 on host d021 reporting.
  Task       32 on host d021 reporting.
  Task       33 on host d021 reporting.
  Task       34 on host d021 reporting.
  Task       35 on host d021 reporting.
  Task       36 on host d021 reporting.
  Task       37 on host d021 reporting.
  Task       38 on host d021 reporting.
  Task       39 on host d021 reporting.
  Task       40 on host d021 reporting.
  Task       41 on host d021 reporting.
  Task       42 on host d021 reporting.
  Task       43 on host d021 reporting.
  Task       44 on host d021 reporting.
  Task       45 on host d021 reporting.
  Task       46 on host d021 reporting.
  Task       47 on host d021 reporting.
  Task       48 on host d021 reporting.
  Task       49 on host d021 reporting.
  Task       50 on host d021 reporting.
  Task       51 on host d021 reporting.
  Task       52 on host d021 reporting.
  Task       53 on host d021 reporting.
  Task       54 on host d021 reporting.
  Task       55 on host d021 reporting.

  Performing system and environment tests:
  *** Environment variable OMP_NUM_THREADS is not set
  *** For performance reasons you might want to set it to 1
  | Stacksize not measured: no C compiler
  | Checking for scalapack...
  | Testing pdtran()...
  | All pdtran() tests passed.

  Obtaining array dimensions for all initial allocations:
  
  -----------------------------------------------------------------------
  Parsing control.in (first pass over file, find array dimensions only).
  The contents of control.in will be repeated verbatim below
  unless switched off by setting 'verbatim_writeout .false.' .
  in the first line of control.in .
  -----------------------------------------------------------------------
  
  #===============================================================================
  # FHI-aims file: ./Runs/es/control.in
  # Created using the Atomic Simulation Environment (ASE)
  # Mon Jan 13 16:04:38 2020
  #===============================================================================
  xc                                 pbe
  relativistic                       zora scalar 1e-12
  occupation_type                    gaussian 0.0001
  load_balancing                     .true.
  KS_method                          scalapack_fast
  mixer                              pulay
  n_max_pulay                        5
  charge_mix_param                   0.4
  sc_accuracy_etot                   1e-6
  sc_accuracy_eev                    1e-4
  sc_accuracy_rho                    1e-6
  sc_iter_limit                      100
  prodbas_threshold                  1e-4
  basis_threshold                    1e-5
  override_illconditioning           .true.
  use_logsbt                         .true.
  spin                               none
  charge                             0
  #===============================================================================
  
  ################################################################################
  #
  #  FHI-aims code project
  # Volker Blum, Fritz Haber Institute Berlin, 2009
  #
  #  Suggested "tight" defaults for H atom (to be pasted into control.in file)
  #
  ################################################################################
    species        H
  #     global species definitions
      nucleus             1
      mass                1.00794
  #
      l_hartree           6
  #
      cut_pot             4.0  2.0  1.0
      basis_dep_cutoff    1e-4
  #
      radial_base         24 7.0
      radial_multiplier   2
      angular_grids       specified
        division   0.1930   50
        division   0.3175  110
        division   0.4293  194
        division   0.5066  302
        division   0.5626  434
  #      division   0.5922  590
  #      division   0.6227  974
  #      division   0.6868 1202
  #      outer_grid  770
        outer_grid  434
  ################################################################################
  #
  #  Definition of "minimal" basis
  #
  ################################################################################
  #     valence basis states
      valence      1  s   1.
  #     ion occupancy
      ion_occ      1  s   0.5
  ################################################################################
  #
  #  Suggested additional basis functions. For production calculations,
  #  uncomment them one after another (the most important basis functions are
  #  listed first).
  #
  #  Basis constructed for dimers: 0.5 A, 0.7 A, 1.0 A, 1.5 A, 2.5 A
  #
  ################################################################################
  #  "First tier" - improvements: -1014.90 meV to -62.69 meV
       hydro 2 s 2.1
       hydro 2 p 3.5
  #  "Second tier" - improvements: -12.89 meV to -1.83 meV
       hydro 1 s 0.85
       hydro 2 p 3.7
       hydro 2 s 1.2
       hydro 3 d 7
  #  "Third tier" - improvements: -0.25 meV to -0.12 meV
  #     hydro 4 f 11.2
  #     hydro 3 p 4.8
  #     hydro 4 d 9
  #     hydro 3 s 3.2
  ################################################################################
  #
  # For methods that use the localized form of the "resolution of identity" for
  # the two-electron Coulomb operator (RI_method LVL), particularly Hartree-Fock and
  # hybrid density functional calculations, the highest accuracy can be obtained by
  # uncommenting the line beginning with "for_aux"  below, thus adding an extra g radial
  # function to the construction of the product basis set for the expansion.
  # See Ref. New J. Phys. 17, 093020 (2015) for more information, particularly Figs. 1 and 6.
  #
  ################################################################################
  #
  # for_aux hydro 5 g 6.0
  ################################################################################
  #
  #  FHI-aims code project
  # Volker Blum, Fritz Haber Institute Berlin, 2009
  #
  #  Suggested "tight" defaults for C atom (to be pasted into control.in file)
  #
  ################################################################################
    species        C
  #     global species definitions
      nucleus             6
      mass                12.0107
  #
      l_hartree           6
  #
      cut_pot             4.0  2.0  1.0
      basis_dep_cutoff    1e-4
  #
      radial_base         34 7.0
      radial_multiplier   2
      angular_grids specified
        division   0.2187   50
        division   0.4416  110
        division   0.6335  194
        division   0.7727  302
        division   0.8772  434
  #      division   0.9334  590
  #      division   0.9924  770
  #      division   1.0230  974
  #      division   1.5020 1202
  #     outer_grid  974
        outer_grid  434
  ################################################################################
  #
  #  Definition of "minimal" basis
  #
  ################################################################################
  #     valence basis states
      valence      2  s   2.
      valence      2  p   2.
  #     ion occupancy
      ion_occ      2  s   1.
      ion_occ      2  p   1.
  ################################################################################
  #
  #  Suggested additional basis functions. For production calculations,
  #  uncomment them one after another (the most important basis functions are
  #  listed first).
  #
  #  Constructed for dimers: 1.0 A, 1.25 A, 1.5 A, 2.0 A, 3.0 A
  #
  ################################################################################
  #  "First tier" - improvements: -1214.57 meV to -155.61 meV
       hydro 2 p 1.7
       hydro 3 d 6
       hydro 2 s 4.9
  #  "Second tier" - improvements: -67.75 meV to -5.23 meV
       hydro 4 f 9.8
       hydro 3 p 5.2
       hydro 3 s 4.3
       hydro 5 g 14.4
       hydro 3 d 6.2
  #  "Third tier" - improvements: -2.43 meV to -0.60 meV
  #     hydro 2 p 5.6
  #     hydro 2 s 1.4
  #     hydro 3 d 4.9
  #     hydro 4 f 11.2
  #  "Fourth tier" - improvements: -0.39 meV to -0.18 meV
  #     hydro 2 p 2.1
  #     hydro 5 g 16.4
  #     hydro 4 d 13.2
  #     hydro 3 s 13.6
  #     hydro 4 f 17.6
  #  Further basis functions - improvements: -0.08 meV and below
  #     hydro 3 s 2
  #     hydro 3 p 6
  #     hydro 4 d 20
  ################################################################################
  #
  # For methods that use the localized form of the "resolution of identity" for
  # the two-electron Coulomb operator (RI_method LVL), particularly Hartree-Fock and
  # hybrid density functional calculations, the highest accuracy can be obtained by
  # uncommenting the line beginning with "for_aux"  below, thus adding an extra g radial
  # function to the construction of the product basis set for the expansion.
  # See Ref. New J. Phys. 17, 093020 (2015) for more information, particularly Figs. 1 and 6.
  #
  ################################################################################
  #
  # for_aux hydro 5 g 6.0
  
  -----------------------------------------------------------------------
  Completed first pass over input file control.in .
  -----------------------------------------------------------------------
  
  
  -----------------------------------------------------------------------
  Parsing geometry.in (first pass over file, find array dimensions only).
  The contents of geometry.in will be repeated verbatim below
  unless switched off by setting 'verbatim_writeout .false.' .
  in the first line of geometry.in .
  -----------------------------------------------------------------------
  
  #=======================================================
  # FHI-aims file: geometry.in
  # Created using the Atomic Simulation Environment (ASE)
  # Sun Jun 20 15:47:01 2021
  #=======================================================
  atom 27.1559479999999986 25.9221000000000004 52.7576770000000010 H
  atom 28.2212449999999997 26.1400439999999996 52.6757479999999987 C
  atom 28.8805140000000016 25.8275040000000011 51.4779849999999968 C
  atom 28.8761979999999987 26.6901699999999984 53.6950289999999981 C
  atom 28.3345400000000005 25.3411429999999989 50.6739579999999989 H
  atom 30.2335799999999999 26.0916849999999982 51.2952030000000008 C
  atom 28.3759739999999994 26.9325079999999986 54.6330250000000035 H
  atom 30.2627130000000015 27.0300529999999988 53.5660060000000016 C
  atom 30.7763169999999988 25.6270810000000004 50.0006729999999990 C
  atom 30.9457200000000014 26.7589359999999985 52.3273859999999971 C
  atom 30.9187450000000013 27.6454479999999982 54.6411969999999982 C
  atom 30.1947359999999989 26.0325950000000006 48.7986099999999965 C
  atom 31.8499219999999994 24.7305959999999985 49.9275599999999997 C
  atom 32.3311560000000000 27.2233540000000005 52.2585740000000030 C
  atom 30.3378109999999985 27.8373929999999987 55.5458619999999996 H
  atom 32.2469940000000008 28.0021230000000010 54.5745349999999974 C
  atom 29.3615320000000004 26.7372429999999994 48.8375320000000031 H
  atom 30.6608640000000001 25.6346290000000003 47.5750430000000009 C
  atom 32.3635260000000002 24.3128659999999996 48.7276469999999975 C
  atom 32.3100080000000034 24.3826269999999994 50.8513639999999967 H
  atom 33.1360900000000029 27.1687359999999991 51.0178039999999982 C
  atom 32.9105789999999985 27.7894840000000016 53.3531180000000020 C
  atom 32.7617850000000033 28.4664119999999983 55.4118929999999992 H
  atom 30.1040999999999990 26.0874200000000016 46.3299719999999979 C
  atom 31.7787080000000017 24.7626710000000010 47.5126819999999981 C
  atom 33.5385569999999973 23.4647639999999988 48.6308799999999977 C
  atom 32.7454919999999987 27.7787739999999985 49.8221920000000011 C
  atom 34.3521229999999989 26.4568019999999997 51.0156530000000004 C
  atom 33.9405920000000023 28.1363100000000017 53.2565659999999994 H
  atom 29.2563299999999984 26.7747729999999997 46.3858820000000023 H
  atom 30.5723860000000016 25.6962450000000011 45.1451119999999975 C
  atom 32.3311560000000000 24.3956540000000004 46.2697610000000026 C
  atom 34.0618720000000010 23.1492770000000014 47.4438689999999994 C
  atom 34.0101879999999994 23.1282439999999987 49.5546840000000017 H
  atom 31.8243499999999990 28.3601869999999998 49.8058490000000020 H
  atom 33.4554740000000024 27.6357190000000017 48.6609849999999966 C
  atom 35.1052650000000028 26.3022600000000004 49.8738010000000003 C
  atom 34.6767940000000010 25.9705450000000013 51.9375220000000013 H
  atom 30.1219029999999997 26.0495790000000014 44.2159320000000022 H
  atom 31.7387850000000000 24.8394720000000007 45.0590959999999967 C
  atom 33.4900019999999969 23.5750799999999998 46.2095500000000001 C
  atom 34.9686639999999969 22.5438730000000014 47.3976359999999985 H
  atom 32.9947409999999977 28.1849360000000004 47.4116140000000001 C
  atom 34.6423739999999967 26.8596760000000003 48.6588350000000034 C
  atom 36.3094290000000015 25.5121240000000000 49.8587479999999985 C
  atom 32.2912329999999983 24.4684549999999987 43.8441309999999973 C
  atom 34.0230279999999965 23.2413549999999987 44.9838329999999971 C
  atom 32.0738139999999987 28.7681119999999986 47.4169899999999984 H
  atom 33.6335089999999965 27.9282439999999994 46.2740620000000007 C
  atom 35.3437240000000017 26.6318519999999985 47.4610729999999990 C
  atom 36.9730139999999992 25.3050519999999999 48.7147450000000006 C
  atom 36.6505009999999984 25.0700779999999988 50.7952390000000022 H
  atom 31.8347079999999991 24.8014019999999995 42.9132299999999987 H
  atom 33.4371310000000008 23.6672650000000004 43.8226269999999971 C
  atom 34.9151450000000025 22.6147349999999996 44.9494270000000000 H
  atom 33.2579089999999979 28.3211310000000012 45.3289690000000007 H
  atom 34.8689639999999983 27.1601609999999987 46.2353549999999984 C
  atom 36.5295449999999988 25.8396499999999989 47.4610729999999990 C
  atom 37.8745189999999994 24.6898170000000015 48.7057130000000029 H
  atom 33.8598830000000035 23.3764380000000003 42.8594709999999992 H
  atom 35.5692349999999990 26.9171520000000015 45.0612470000000016 C
  atom 37.1898929999999979 25.6333139999999986 46.2676110000000023 C
  atom 35.1946060000000003 27.3407319999999991 44.1290559999999985 H
  atom 36.7345550000000003 26.1450700000000005 45.0504949999999980 C
  atom 38.1051009999999977 25.0367759999999997 46.2841689999999986 H
  atom 37.2815000000000012 25.9677639999999990 44.1273359999999997 H
  
  -----------------------------------------------------------------------
  Completed first pass over input file geometry.in .
  -----------------------------------------------------------------------
  

  Basic array size parameters:
  | Number of species                 :        2
  | Number of atoms                   :       66
  | Max. basis fn. angular momentum   :        4
  | Max. atomic/ionic basis occupied n:        2
  | Max. number of basis fn. types    :        2
  | Max. radial fns per species/type  :        8
  | Max. logarithmic grid size        :     1277
  | Max. radial integration grid size :       69
  | Max. angular integration grid size:      434
  | Max. angular grid division number :        8
  | Radial grid for Hartree potential :     1277
  | Number of spin channels           :        1

------------------------------------------------------------
          Reading file control.in.
------------------------------------------------------------
  XC: Using PBE gradient-corrected functionals.
  Scalar relativistic treatment of kinetic energy: ZORA.
  Threshold value for ZORA:   0.100000E-11
  Occupation type: Gaussian broadening, width =   0.100000E-03 eV.
  Since 'load_balancing .true.' is present in control.in, automatically turning on 'use_local_index .true.'.
  Using load balancing for integrations.
  Kohn-Sham electronic structure solved by the ELSI library.
  Using pulay charge density mixing.
  Pulay mixing - number of memorized iterations:    5
  Charge density mixing - mixing parameter:     0.4000
  Convergence accuracy of total energy:  0.1000E-05
  Convergence accuracy of sum of eigenvalues:  0.1000E-03
  Convergence accuracy of self-consistent charge density:  0.1000E-05
  Maximum number of s.-c. iterations  :   100
  * Ignoring prodbas_threshold
  Threshold for basis singularities:  0.1000E-04
  override_illconditioning: Explicitly overriding any built-in checks for an ill-conditioned overlap matrix.
  *** WARNING: If you use this flag, you should really know what you are doing.
  *** DO NOT keep this flag set by default in all your control.in files.
  Using 1D integrations for auxiliary 2-center integrals.
  Spin treatment: No spin polarisation.
  Charge =   0.000000E+00: Neutral system requested explicitly.
 
  Reading configuration options for species H                   .
  | Found nuclear charge :   1.0000
  | Found atomic mass :    1.00794000000000      amu
  | Found l_max for Hartree potential  :   6
  | Found cutoff potl. onset [A], width [A], scale factor :    4.00000    2.00000    1.00000
  | Threshold for basis-dependent cutoff potential is   0.100000E-03
  | Found data for basic radial integration grid :    24 points, outermost radius =    7.000 A
  | Found multiplier for basic radial grid :   2
  | Found angular grid specification: user-specified.
  | Specified grid contains     6 separate shells.
  | Check grid settings after all constraints further below.
  | Found free-atom valence shell :  1 s   1.000
  | No ionic wave fns used. Skipping ion_occ.
  | Found hydrogenic basis function :  2 s   2.100
  | Found hydrogenic basis function :  2 p   3.500
  | Found hydrogenic basis function :  1 s   0.850
  | Found hydrogenic basis function :  2 p   3.700
  | Found hydrogenic basis function :  2 s   1.200
  | Found hydrogenic basis function :  3 d   7.000
  Species H                   : Missing cutoff potential type.
  Defaulting to exp(1/x)/(1-x)^2 type cutoff potential.
  Species H : No 'logarithmic' tag. Using default grid for free atom:
  | Default logarithmic grid data [bohr] : 0.1000E-03 0.1000E+03 0.1012E+01
  Species H : On-site basis accuracy parameter (for Gram-Schmidt orthonormalisation) not specified.
  Using default value basis_acc =  0.1000000E-03.
  Species H                   : Using default innermost maximum threshold i_radial=  2 for radial functions.
  Species H                   : Default cutoff onset for free atom density etc. : 0.40000000E+01 AA.
  Species H                   : Basic radial grid will be enhanced according to radial_multiplier =   2, to contain    49 grid points.
 
  Reading configuration options for species C                   .
  | Found nuclear charge :   6.0000
  | Found atomic mass :    12.0107000000000      amu
  | Found l_max for Hartree potential  :   6
  | Found cutoff potl. onset [A], width [A], scale factor :    4.00000    2.00000    1.00000
  | Threshold for basis-dependent cutoff potential is   0.100000E-03
  | Found data for basic radial integration grid :    34 points, outermost radius =    7.000 A
  | Found multiplier for basic radial grid :   2
  | Found angular grid specification: user-specified.
  | Specified grid contains     6 separate shells.
  | Check grid settings after all constraints further below.
  | Found free-atom valence shell :  2 s   2.000
  | Found free-atom valence shell :  2 p   2.000
  | No ionic wave fns used. Skipping ion_occ.
  | No ionic wave fns used. Skipping ion_occ.
  | Found hydrogenic basis function :  2 p   1.700
  | Found hydrogenic basis function :  3 d   6.000
  | Found hydrogenic basis function :  2 s   4.900
  | Found hydrogenic basis function :  4 f   9.800
  | Found hydrogenic basis function :  3 p   5.200
  | Found hydrogenic basis function :  3 s   4.300
  | Found hydrogenic basis function :  5 g  14.400
  | Found hydrogenic basis function :  3 d   6.200
  Species C                   : Missing cutoff potential type.
  Defaulting to exp(1/x)/(1-x)^2 type cutoff potential.
  Species C : No 'logarithmic' tag. Using default grid for free atom:
  | Default logarithmic grid data [bohr] : 0.1000E-03 0.1000E+03 0.1012E+01
  Species C : On-site basis accuracy parameter (for Gram-Schmidt orthonormalisation) not specified.
  Using default value basis_acc =  0.1000000E-03.
  Species C                   : Using default innermost maximum threshold i_radial=  2 for radial functions.
  Species C                   : Default cutoff onset for free atom density etc. : 0.40000000E+01 AA.
  Species C                   : Basic radial grid will be enhanced according to radial_multiplier =   2, to contain    69 grid points.
 
  Finished reading input file 'control.in'. Consistency checks are next.
 
  MPI_IN_PLACE appears to work with this MPI implementation.
  | Keeping use_mpi_in_place .true. (see manual).
  Target number of points in a grid batch is not set. Defaulting to  100
  Method for grid partitioning is not set. Defaulting to parallel hash+maxmin partitioning.
  Batch size limit is not set. Defaulting to    200
  By default, will store active basis functions for each batch.
  If in need of memory, prune_basis_once .false. can be used to disable this option.
  communication_type for Hartree potential was not specified.
  Defaulting to calc_hartree .
  Pulay mixer: Number of initial linear mixing iterations not set.
  Defaulting to    0 iterations.
  Work space size for distributed Hartree potential not set.
  Defaulting to   0.200000E+03 MB.
  Algorithm-dependent basis array size parameters:
  | n_max_pulay                         :        5
  Presetting      1001 iterations before the initial mixing cycle
  is restarted anyway using the sc_init_iter criterion / keyword.
  Presetting a factor      1.000 between actual scf density residual
  and density convergence criterion sc_accuracy_rho below which sc_init_iter
  takes no effect.
  Calculation of forces was not defined in control.in. No forces will be calculated.
  Geometry relaxation not requested: no relaxation will be performed.
  No accuracy limit for integral partition fn. given. Defaulting to  0.1000E-14.
  No threshold value for u(r) in integrations given. Defaulting to  0.1000E-05.
  No accuracy for occupation numbers given. Defaulting to  0.1000E-12.
  No threshold value for occupation numbers given. Defaulting to  0.0000E+00.
  No accuracy for fermi level given. Defaulting to  0.1000E-19.
  Maximum # of iterations to find E_F not set. Defaulting to  200.
  Will not use alltoall communication since running on < 1024 CPUs.
  partition_type (choice of integration weights) for integrals was not specified.
  | Using a version of the partition function of Stratmann and coworkers ('stratmann_sparse').
  | At each grid point, the set of atoms used to build the partition table is smoothly restricted to
  | only those atoms whose free-atom density would be non-zero at that grid point.
  Partitioning for Hartree potential was not defined. Using partition_type for integrals.
  | Adjusted default value of keyword multip_moments_threshold to:       0.10000000E-11
  | This value may affect high angular momentum components of the Hartree potential in periodic systems.
  No q(lm)/r^(l+1) cutoff set for long-range Hartree potential.
  | Using default value of  0.100000E-09 .
  | Verify using the multipole_threshold keyword.
  Defaulting to new monopole extrapolation.
  Density update method: automatic selection selected.
 * Warning: use_local_index and/or load_balancing needs packed_matrix_format = index
 * Changing the default setting to packed_matrix_format = index
------------------------------------------------------------


------------------------------------------------------------
          Reading geometry description geometry.in.
------------------------------------------------------------
  Input structure read successfully.
  The structure contains       66 atoms,  and a total of        276.000 electrons.

  Input geometry:
  | No unit cell requested.
  | Atomic structure:
  |       Atom                x [A]            y [A]            z [A]
  |    1: Species H            27.15594800       25.92210000       52.75767700
  |    2: Species C            28.22124500       26.14004400       52.67574800
  |    3: Species C            28.88051400       25.82750400       51.47798500
  |    4: Species C            28.87619800       26.69017000       53.69502900
  |    5: Species H            28.33454000       25.34114300       50.67395800
  |    6: Species C            30.23358000       26.09168500       51.29520300
  |    7: Species H            28.37597400       26.93250800       54.63302500
  |    8: Species C            30.26271300       27.03005300       53.56600600
  |    9: Species C            30.77631700       25.62708100       50.00067300
  |   10: Species C            30.94572000       26.75893600       52.32738600
  |   11: Species C            30.91874500       27.64544800       54.64119700
  |   12: Species C            30.19473600       26.03259500       48.79861000
  |   13: Species C            31.84992200       24.73059600       49.92756000
  |   14: Species C            32.33115600       27.22335400       52.25857400
  |   15: Species H            30.33781100       27.83739300       55.54586200
  |   16: Species C            32.24699400       28.00212300       54.57453500
  |   17: Species H            29.36153200       26.73724300       48.83753200
  |   18: Species C            30.66086400       25.63462900       47.57504300
  |   19: Species C            32.36352600       24.31286600       48.72764700
  |   20: Species H            32.31000800       24.38262700       50.85136400
  |   21: Species C            33.13609000       27.16873600       51.01780400
  |   22: Species C            32.91057900       27.78948400       53.35311800
  |   23: Species H            32.76178500       28.46641200       55.41189300
  |   24: Species C            30.10410000       26.08742000       46.32997200
  |   25: Species C            31.77870800       24.76267100       47.51268200
  |   26: Species C            33.53855700       23.46476400       48.63088000
  |   27: Species C            32.74549200       27.77877400       49.82219200
  |   28: Species C            34.35212300       26.45680200       51.01565300
  |   29: Species H            33.94059200       28.13631000       53.25656600
  |   30: Species H            29.25633000       26.77477300       46.38588200
  |   31: Species C            30.57238600       25.69624500       45.14511200
  |   32: Species C            32.33115600       24.39565400       46.26976100
  |   33: Species C            34.06187200       23.14927700       47.44386900
  |   34: Species H            34.01018800       23.12824400       49.55468400
  |   35: Species H            31.82435000       28.36018700       49.80584900
  |   36: Species C            33.45547400       27.63571900       48.66098500
  |   37: Species C            35.10526500       26.30226000       49.87380100
  |   38: Species H            34.67679400       25.97054500       51.93752200
  |   39: Species H            30.12190300       26.04957900       44.21593200
  |   40: Species C            31.73878500       24.83947200       45.05909600
  |   41: Species C            33.49000200       23.57508000       46.20955000
  |   42: Species H            34.96866400       22.54387300       47.39763600
  |   43: Species C            32.99474100       28.18493600       47.41161400
  |   44: Species C            34.64237400       26.85967600       48.65883500
  |   45: Species C            36.30942900       25.51212400       49.85874800
  |   46: Species C            32.29123300       24.46845500       43.84413100
  |   47: Species C            34.02302800       23.24135500       44.98383300
  |   48: Species H            32.07381400       28.76811200       47.41699000
  |   49: Species C            33.63350900       27.92824400       46.27406200
  |   50: Species C            35.34372400       26.63185200       47.46107300
  |   51: Species C            36.97301400       25.30505200       48.71474500
  |   52: Species H            36.65050100       25.07007800       50.79523900
  |   53: Species H            31.83470800       24.80140200       42.91323000
  |   54: Species C            33.43713100       23.66726500       43.82262700
  |   55: Species H            34.91514500       22.61473500       44.94942700
  |   56: Species H            33.25790900       28.32113100       45.32896900
  |   57: Species C            34.86896400       27.16016100       46.23535500
  |   58: Species C            36.52954500       25.83965000       47.46107300
  |   59: Species H            37.87451900       24.68981700       48.70571300
  |   60: Species H            33.85988300       23.37643800       42.85947100
  |   61: Species C            35.56923500       26.91715200       45.06124700
  |   62: Species C            37.18989300       25.63331400       46.26761100
  |   63: Species H            35.19460600       27.34073200       44.12905600
  |   64: Species C            36.73455500       26.14507000       45.05049500
  |   65: Species H            38.10510100       25.03677600       46.28416900
  |   66: Species H            37.28150000       25.96776400       44.12733600
  |

  | The smallest distance between any two atoms is         1.08678151 AA.
  |
  | The first atom of this pair is atom number                      3 .
  | The second atom of this pair is atom number                     5 .

  Number of empty states per atom not set in control.in - providing a guess from actual geometry.
  | Total number of empty states used during s.c.f. cycle:      162
  If you use a very high smearing, use empty_states (per atom!) in control.in to increase this value.

  Structure-dependent array size parameters: 
  | Maximum number of distinct radial functions  :       18
  | Maximum number of basis functions            :     1998
  | Number of Kohn-Sham states (occupied + empty):      300
------------------------------------------------------------

------------------------------------------------------------
          Preparing all fixed parts of the calculation.
------------------------------------------------------------
  Determining machine precision:
    2.225073858507201E-308
  Setting up grids for atomic and cluster calculations.

  Creating wave function, potential, and density for free atoms.

  Species: H

  List of occupied orbitals and eigenvalues:
    n    l              occ      energy [Ha]    energy [eV]
    1    0           1.0000        -0.238386        -6.4868


  Species: C

  List of occupied orbitals and eigenvalues:
    n    l              occ      energy [Ha]    energy [eV]
    1    0           2.0000       -10.049212      -273.4530
    2    0           2.0000        -0.504761       -13.7352
    2    1           2.0000        -0.193631        -5.2690

  Creating fixed part of basis set: Ionic, confined, hydrogenic.
 
  H                    hydrogenic:
 
  List of hydrogenic basis orbitals: 
    n    l      effective z      eigenvalue [eV]  inner max. [A]     outer max. [A]     outer radius [A]   
    2    0         2.100000       -14.9965           0.193243           1.317208           5.373006
    2    1         3.500000       -41.6672           0.602369           0.602369           4.056063
    1    0         0.850000        -9.8292           0.624871           0.624871           5.373006
    2    1         3.700000       -46.5653           0.573622           0.573622           3.910002
    2    0         1.200000        -4.5995           0.334980           2.228188           5.505995
    3    2         7.000000       -74.0753           0.680699           0.680699           3.769201
 
 
  C                    hydrogenic:
 
  List of hydrogenic basis orbitals: 
    n    l      effective z      eigenvalue [eV]  inner max. [A]     outer max. [A]     outer radius [A]   
    2    1         1.700000        -9.8152           1.245706           1.245706           5.401630
    3    2         6.000000       -54.4226           0.792453           0.792453           4.178599
    2    0         4.900000       -81.6681           0.082559           0.562749           3.353238
    4    3         9.800000       -81.6681           0.863254           0.863254           4.028125
    3    1         5.200000       -40.8774           0.305389           1.215618           4.898362
    3    0         4.300000       -27.9508           0.091041           1.610311           5.401630
    5    4        14.400000      -112.8510           0.917666           0.917666           3.883070
    3    2         6.200000       -58.1113           0.763917           0.763917           4.077671
 

  Adding cutoff potential to free-atom effective potential.
  Creating atomic-like basis functions for current effective potential.

  Species H                   :

  List of atomic basis orbitals and eigenvalues:
    n    l      energy [Ha]    energy [eV]    outer radius [A]
    1    0        -0.238386        -6.4868       5.373006


  Species C                   :

  List of atomic basis orbitals and eigenvalues:
    n    l      energy [Ha]    energy [eV]    outer radius [A]
    1    0       -10.049212      -273.4530       1.934409
    2    0        -0.504761       -13.7352       5.271162
    2    1        -0.193631        -5.2690       5.401630

  Assembling full basis from fixed parts.
  | Species H :   atomic orbital   1 s accepted.
  | Species H :    hydro orbital   2 s accepted.
  | Species H :    hydro orbital   1 s accepted.
  | Species H :    hydro orbital   2 s accepted.
  | Species H :    hydro orbital   2 p accepted.
  | Species H :    hydro orbital   2 p accepted.
  | Species H :    hydro orbital   3 d accepted.
  | Species C :   atomic orbital   1 s accepted.
  | Species C :    hydro orbital   2 s accepted.
  | Species C :   atomic orbital   2 s accepted.
  | Species C :    hydro orbital   3 s accepted.
  | Species C :    hydro orbital   3 p accepted.
  | Species C :   atomic orbital   2 p accepted.
  | Species C :    hydro orbital   2 p accepted.
  | Species C :    hydro orbital   3 d accepted.
  | Species C :    hydro orbital   3 d accepted.
  | Species C :    hydro orbital   4 f accepted.
  | Species C :    hydro orbital   5 g accepted.
 
  Basis size parameters after reduction:
  | Total number of radial functions:       18
  | Total number of basis functions :     1998
 
  Per-task memory consumption for arrays in subroutine allocate_ext:
  |           4.459696MB.
  Testing on-site integration grid accuracy.
  |  Species  Function  <phi|h_atom|phi> (log., in eV)  <phi|h_atom|phi> (rad., in eV)
           1        1                 -6.4870767962                 -6.4871688290
           1        2                 13.5032046589                 13.5028982997
           1        3                 32.8195184817                 32.8119941656
           1        4                 33.8513856511                 33.7670005767 ***
           1        5                 28.8544614965                 28.8544615203
           1        6                 59.6326952547                 59.6327656460
           1        7                 60.2719308513                 60.2719305949
           2        8               -273.4529726040               -273.4529710464
           2        9                -10.7721037319                -10.7721022101
           2       10                 17.6044132601                 17.6044162063
           2       11                 53.7706460658                 53.7706913770
           2       12                 15.0973290362                 15.0973256030
           2       13                  3.8545134692                  3.8545724687
           2       14                 12.1156992592                 12.1182024431
           2       15                 29.4352039302                 29.4352041816
           2       16                 54.8741144708                 54.8740268729
           2       17                 59.3556032049                 59.3556031382
           2       18                 93.4551837154                 93.4551838009
 * Note: Onsite integrals marked "***" above are less accurate than
 * onsite_accuracy_threshold =    0.03000 eV. Usually, this is harmless.
 * When in doubt, tighten the "radial" and/or "radial_multiplier" flags to check.

  Preparing densities etc. for the partition functions (integrals / Hartree potential).

  Preparations completed.
  max(cpu_time)          :      0.189 s.
  Wall clock time (cpu1) :      0.174 s.
------------------------------------------------------------

------------------------------------------------------------
          Begin self-consistency loop: Initialization.

          Date     :  20210620, Time     :  163455.213
------------------------------------------------------------

  Initializing index lists of integration centers etc. from given atomic structure:
  | Number of centers in hartree potential         :        66
  | Number of centers in hartree multipole         :        66
  | Number of centers in electron density summation:        66
  | Number of centers in basis integrals           :        66
  | Number of centers in integrals                 :        66
  | Number of centers in hamiltonian               :        66
  * Using 56 tasks for Scalapack Eigenvalue solver.
  Detailed listing of tasks and assigned k-points:
  (for non-periodic systems, the "k-point" denotes an internal label only)
   Task     0 k-point     1 on d021
   Task     1 k-point     1 on d021
   Task     2 k-point     1 on d021
   Task     3 k-point     1 on d021
   Task     4 k-point     1 on d021
   Task     5 k-point     1 on d021
   Task     6 k-point     1 on d021
   Task     7 k-point     1 on d021
   Task     8 k-point     1 on d021
   Task     9 k-point     1 on d021
   Task    10 k-point     1 on d021
   Task    11 k-point     1 on d021
   Task    12 k-point     1 on d021
   Task    13 k-point     1 on d021
   Task    14 k-point     1 on d021
   Task    15 k-point     1 on d021
   Task    16 k-point     1 on d021
   Task    17 k-point     1 on d021
   Task    18 k-point     1 on d021
   Task    19 k-point     1 on d021
   Task    20 k-point     1 on d021
   Task    21 k-point     1 on d021
   Task    22 k-point     1 on d021
   Task    23 k-point     1 on d021
   Task    24 k-point     1 on d021
   Task    25 k-point     1 on d021
   Task    26 k-point     1 on d021
   Task    27 k-point     1 on d021
   Task    28 k-point     1 on d021
   Task    29 k-point     1 on d021
   Task    30 k-point     1 on d021
   Task    31 k-point     1 on d021
   Task    32 k-point     1 on d021
   Task    33 k-point     1 on d021
   Task    34 k-point     1 on d021
   Task    35 k-point     1 on d021
   Task    36 k-point     1 on d021
   Task    37 k-point     1 on d021
   Task    38 k-point     1 on d021
   Task    39 k-point     1 on d021
   Task    40 k-point     1 on d021
   Task    41 k-point     1 on d021
   Task    42 k-point     1 on d021
   Task    43 k-point     1 on d021
   Task    44 k-point     1 on d021
   Task    45 k-point     1 on d021
   Task    46 k-point     1 on d021
   Task    47 k-point     1 on d021
   Task    48 k-point     1 on d021
   Task    49 k-point     1 on d021
   Task    50 k-point     1 on d021
   Task    51 k-point     1 on d021
   Task    52 k-point     1 on d021
   Task    53 k-point     1 on d021
   Task    54 k-point     1 on d021
   Task    55 k-point     1 on d021
  Tasks:    56 split into      8 X      7 BLACS grid
  Calculating block size based on n_basis =         1998 max_nprow =            8 max_npcol =            7
  ScaLAPACK block size set to:           16
  Allocating        0.590 MB for ovlp
  Allocating        0.590 MB for ham
  Allocating        0.590 MB for eigenvec
  Required Scalapack workspace - INTEGER:            1 REAL:             1
  Partitioning the integration grid into batches with parallel hashing+maxmin method.
  | Number of batches:     9861
  | Maximal batch size:     200
  | Minimal batch size:       2
  | Average batch size:     112.167
  | Standard deviation of batch sizes:      23.015

  Integration load balanced across     56 MPI tasks.
  Work distribution over tasks is as follows:
  Task      0 has      19879 integration points.
  Task      1 has      19855 integration points.
  Task      2 has      19654 integration points.
  Task      3 has      19838 integration points.
  Task      4 has      19679 integration points.
  Task      5 has      19740 integration points.
  Task      6 has      19635 integration points.
  Task      7 has      19846 integration points.
  Task      8 has      19824 integration points.
  Task      9 has      19621 integration points.
  Task     10 has      19812 integration points.
  Task     11 has      19753 integration points.
  Task     12 has      19737 integration points.
  Task     13 has      19663 integration points.
  Task     14 has      19821 integration points.
  Task     15 has      19788 integration points.
  Task     16 has      19779 integration points.
  Task     17 has      19813 integration points.
  Task     18 has      19768 integration points.
  Task     19 has      19815 integration points.
  Task     20 has      19580 integration points.
  Task     21 has      19755 integration points.
  Task     22 has      19816 integration points.
  Task     23 has      19658 integration points.
  Task     24 has      19829 integration points.
  Task     25 has      19733 integration points.
  Task     26 has      19693 integration points.
  Task     27 has      19685 integration points.
  Task     28 has      19906 integration points.
  Task     29 has      19774 integration points.
  Task     30 has      19618 integration points.
  Task     31 has      19900 integration points.
  Task     32 has      19660 integration points.
  Task     33 has      19843 integration points.
  Task     34 has      19636 integration points.
  Task     35 has      19794 integration points.
  Task     36 has      19812 integration points.
  Task     37 has      19656 integration points.
  Task     38 has      19860 integration points.
  Task     39 has      19628 integration points.
  Task     40 has      19816 integration points.
  Task     41 has      19607 integration points.
  Task     42 has      19797 integration points.
  Task     43 has      19809 integration points.
  Task     44 has      19782 integration points.
  Task     45 has      19809 integration points.
  Task     46 has      19732 integration points.
  Task     47 has      19791 integration points.
  Task     48 has      19631 integration points.
  Task     49 has      19857 integration points.
  Task     50 has      19701 integration points.
  Task     51 has      19679 integration points.
  Task     52 has      19803 integration points.
  Task     53 has      19691 integration points.
  Task     54 has      19745 integration points.
  Task     55 has      19670 integration points.
  Initializing partition tables, free-atom densities, potentials, etc. across the integration grid (initialize_grid_storage).
  | initialize_grid_storage: Actual outermost partition radius vs. multipole_radius_free
  | (-- VB: in principle, multipole_radius_free should be larger, hence this output)
  | Species        1: Confinement radius =              6.000000000000000 AA, multipole_radius_free =              6.071692442739658 AA.
  | Species        1: outer_partition_radius set to              6.071692442739658 AA .
  | Species        2: Confinement radius =              6.000000000000000 AA, multipole_radius_free =              6.029870734432609 AA.
  | Species        2: outer_partition_radius set to              6.029870734432609 AA .
  | The sparse table of interatomic distances needs     51.7480 kbyte instead of    34.8480 kbyte of memory.
  | Using the partition_type stratmann_smoother will reduce your memory usage.
  | Net number of integration points:  1106076
  | of which are non-zero points    :   858940
  Renormalizing the initial density to the exact electron count on the 3D integration grid.
  | Initial density: Formal number of electrons (from input files) :     276.0000000000
  | Integrated number of electrons on 3D grid     :     276.0001305173
  | Charge integration error                      :       0.0001305173
  | Normalization factor for density and gradient :       0.9999995271
  Obtaining max. number of non-zero basis functions in each batch (get_n_compute_maxes).
  | Maximal number of non-zero basis functions:     1441
  Selecting the method for density update.
  Loop over occupied states selected for charge density update.
  Hamiltonian matrix size:
  | Size of matrix non-packed:               1997001
  | Size of matrix packed:         1779347
  Allocating        4.795 MB for KS_eigenvector
  use_local_index: Max. local matrix size =      1380702
  Task:     0 matrix size:     405278
  Task:     1 matrix size:     347245
  Task:     2 matrix size:     645321
  Task:     3 matrix size:     965794
  Task:     4 matrix size:    1134786
  Task:     5 matrix size:    1080136
  Task:     6 matrix size:    1376892
  Task:     7 matrix size:     366739
  Task:     8 matrix size:     923410
  Task:     9 matrix size:     779508
  Task:    10 matrix size:    1036256
  Task:    11 matrix size:     899427
  Task:    12 matrix size:    1380702
  Task:    13 matrix size:     915213
  Task:    14 matrix size:     680134
  Task:    15 matrix size:     413421
  Task:    16 matrix size:     703053
  Task:    17 matrix size:     771621
  Task:    18 matrix size:    1216865
  Task:    19 matrix size:     771913
  Task:    20 matrix size:     818554
  Task:    21 matrix size:     772195
  Task:    22 matrix size:     549490
  Task:    23 matrix size:     288420
  Task:    24 matrix size:    1244901
  Task:    25 matrix size:     707318
  Task:    26 matrix size:    1172640
  Task:    27 matrix size:     854845
  Task:    28 matrix size:     692593
  Task:    29 matrix size:    1088845
  Task:    30 matrix size:    1203198
  Task:    31 matrix size:     722081
  Task:    32 matrix size:     711337
  Task:    33 matrix size:     203841
  Task:    34 matrix size:     459450
  Task:    35 matrix size:     610308
  Task:    36 matrix size:    1136152
  Task:    37 matrix size:     964924
  Task:    38 matrix size:     295271
  Task:    39 matrix size:     271934
  Task:    40 matrix size:     432170
  Task:    41 matrix size:     171991
  Task:    42 matrix size:    1339891
  Task:    43 matrix size:     900150
  Task:    44 matrix size:    1092146
  Task:    45 matrix size:    1176310
  Task:    46 matrix size:     641929
  Task:    47 matrix size:     900178
  Task:    48 matrix size:     620784
  Task:    49 matrix size:    1305715
  Task:    50 matrix size:    1190110
  Task:    51 matrix size:     884642
  Task:    52 matrix size:     834175
  Task:    53 matrix size:     681152
  Task:    54 matrix size:     322631
  Task:    55 matrix size:     292928
  Integrating Hamiltonian matrix: batch-based integration.
  Time summed over all CPUs for integration: real work      310.016 s, elapsed      581.817 s
  Time get_set_sparse_local_matrix_scalapack:     0.031010 s
  Start compute_balanced_batch_distribution
  Done load balancing, time needed:      0.011 s
  Integrating overlap matrix with loadbalancing
  Time summed over all CPUs for integration: real work       89.078 s, elapsed      108.534 s
  Time get_set_full_local_matrix_scalapack:     0.034235 s

  Updating Kohn-Sham eigenvalues and eigenvectors using ELSI and the ELPA eigensolver.
  Overlap matrix is not singular
  | Lowest and highest eigenvalues :  0.16E+02,  0.84E-04
  Finished singularity check of overlap matrix
  | Time :     0.151 s
  Finished Cholesky decomposition
  | Time :     0.033 s
  Finished transformation to standard eigenproblem
  | Time :     0.031 s
  Starting ELPA eigensolver
  Finished solving standard eigenproblem
  | Time :     0.165 s
  Finished back-transformation of eigenvectors
  | Time :     0.008 s

  Obtaining occupation numbers and chemical potential using ELSI.
  | Chemical potential (Fermi level):    -7.88014542 eV
  Writing Kohn-Sham eigenvalues.

  State    Occupation    Eigenvalue [Ha]    Eigenvalue [eV]
      1       2.00000         -10.179026         -276.98540
      2       2.00000         -10.176299         -276.91118
      3       2.00000         -10.175176         -276.88063
      4       2.00000         -10.175131         -276.87941
      5       2.00000         -10.174412         -276.85985
      6       2.00000         -10.173936         -276.84689
      7       2.00000         -10.173900         -276.84590
      8       2.00000         -10.173841         -276.84431
      9       2.00000         -10.173457         -276.83386
     10       2.00000         -10.173238         -276.82789
     11       2.00000         -10.173117         -276.82459
     12       2.00000         -10.172873         -276.81797
     13       2.00000         -10.172454         -276.80657
     14       2.00000         -10.172380         -276.80455
     15       2.00000         -10.172201         -276.79967
     16       2.00000         -10.171782         -276.78828
     17       2.00000         -10.171573         -276.78259
     18       2.00000         -10.171422         -276.77847
     19       2.00000         -10.171413         -276.77823
     20       2.00000         -10.171339         -276.77620
     21       2.00000         -10.171096         -276.76961
     22       2.00000         -10.170796         -276.76143
     23       2.00000         -10.170505         -276.75353
     24       2.00000         -10.170424         -276.75133
     25       2.00000         -10.170327         -276.74868
     26       2.00000         -10.169929         -276.73786
     27       2.00000         -10.169901         -276.73708
     28       2.00000         -10.169529         -276.72696
     29       2.00000         -10.169258         -276.71958
     30       2.00000         -10.169109         -276.71553
     31       2.00000         -10.168633         -276.70259
     32       2.00000         -10.168309         -276.69376
     33       2.00000         -10.168065         -276.68713
     34       2.00000         -10.167967         -276.68445
     35       2.00000         -10.167244         -276.66478
     36       2.00000         -10.166323         -276.63971
     37       2.00000         -10.165297         -276.61181
     38       2.00000         -10.164231         -276.58280
     39       2.00000         -10.163447         -276.56148
     40       2.00000         -10.162441         -276.53410
     41       2.00000         -10.161710         -276.51421
     42       2.00000         -10.157320         -276.39474
     43       2.00000          -1.028219          -27.97926
     44       2.00000          -1.024710          -27.88377
     45       2.00000          -1.008853          -27.45228
     46       2.00000          -0.992430          -27.00539
     47       2.00000          -0.989302          -26.92028
     48       2.00000          -0.968539          -26.35530
     49       2.00000          -0.967861          -26.33683
     50       2.00000          -0.966831          -26.30880
     51       2.00000          -0.948308          -25.80476
     52       2.00000          -0.938477          -25.53725
     53       2.00000          -0.913118          -24.84720
     54       2.00000          -0.906556          -24.66865
     55       2.00000          -0.904321          -24.60784
     56       2.00000          -0.894585          -24.34289
     57       2.00000          -0.889775          -24.21201
     58       2.00000          -0.885769          -24.10300
     59       2.00000          -0.877053          -23.86582
     60       2.00000          -0.863791          -23.50495
     61       2.00000          -0.862477          -23.46921
     62       2.00000          -0.859817          -23.39681
     63       2.00000          -0.849155          -23.10669
     64       2.00000          -0.791338          -21.53340
     65       2.00000          -0.788390          -21.45317
     66       2.00000          -0.773376          -21.04463
     67       2.00000          -0.768453          -20.91067
     68       2.00000          -0.764114          -20.79260
     69       2.00000          -0.763464          -20.77492
     70       2.00000          -0.761365          -20.71779
     71       2.00000          -0.757412          -20.61023
     72       2.00000          -0.755763          -20.56535
     73       2.00000          -0.751717          -20.45527
     74       2.00000          -0.732373          -19.92890
     75       2.00000          -0.697879          -18.99025
     76       2.00000          -0.684826          -18.63507
     77       2.00000          -0.680591          -18.51984
     78       2.00000          -0.674472          -18.35331
     79       2.00000          -0.672590          -18.30211
     80       2.00000          -0.668133          -18.18081
     81       2.00000          -0.658912          -17.92990
     82       2.00000          -0.658411          -17.91629
     83       2.00000          -0.651074          -17.71662
     84       2.00000          -0.648966          -17.65926
     85       2.00000          -0.645970          -17.57773
     86       2.00000          -0.633242          -17.23138
     87       2.00000          -0.631688          -17.18912
     88       2.00000          -0.615429          -16.74668
     89       2.00000          -0.612665          -16.67147
     90       2.00000          -0.607269          -16.52462
     91       2.00000          -0.603528          -16.42283
     92       2.00000          -0.600932          -16.35219
     93       2.00000          -0.599625          -16.31663
     94       2.00000          -0.597041          -16.24631
     95       2.00000          -0.591715          -16.10139
     96       2.00000          -0.587153          -15.97723
     97       2.00000          -0.580757          -15.80319
     98       2.00000          -0.577825          -15.72342
     99       2.00000          -0.574778          -15.64050
    100       2.00000          -0.562040          -15.29388
    101       2.00000          -0.561412          -15.27681
    102       2.00000          -0.553354          -15.05753
    103       2.00000          -0.548118          -14.91504
    104       2.00000          -0.543619          -14.79263
    105       2.00000          -0.542818          -14.77084
    106       2.00000          -0.535503          -14.57177
    107       2.00000          -0.534282          -14.53856
    108       2.00000          -0.531975          -14.47578
    109       2.00000          -0.526701          -14.33228
    110       2.00000          -0.525777          -14.30713
    111       2.00000          -0.521733          -14.19709
    112       2.00000          -0.519770          -14.14365
    113       2.00000          -0.518156          -14.09974
    114       2.00000          -0.515850          -14.03698
    115       2.00000          -0.510921          -13.90288
    116       2.00000          -0.508784          -13.84473
    117       2.00000          -0.505765          -13.76258
    118       2.00000          -0.503472          -13.70017
    119       2.00000          -0.490553          -13.34862
    120       2.00000          -0.486447          -13.23689
    121       2.00000          -0.485033          -13.19842
    122       2.00000          -0.477048          -12.98114
    123       2.00000          -0.474399          -12.90906
    124       2.00000          -0.473159          -12.87531
    125       2.00000          -0.470358          -12.79909
    126       2.00000          -0.452011          -12.29986
    127       2.00000          -0.437823          -11.91376
    128       2.00000          -0.426912          -11.61686
    129       2.00000          -0.420645          -11.44632
    130       2.00000          -0.420113          -11.43187
    131       2.00000          -0.409050          -11.13081
    132       2.00000          -0.407077          -11.07713
    133       2.00000          -0.397617          -10.81972
    134       2.00000          -0.393712          -10.71346
    135       2.00000          -0.372691          -10.14144
    136       2.00000          -0.366840           -9.98221
    137       2.00000          -0.363230           -9.88400
    138       2.00000          -0.360785           -9.81747
    139       0.00000          -0.257879           -7.01725
    140       0.00000          -0.252736           -6.87729
    141       0.00000          -0.250388           -6.81341
    142       0.00000          -0.234424           -6.37899
    143       0.00000          -0.229046           -6.23265
    144       0.00000          -0.214391           -5.83388
    145       0.00000          -0.207401           -5.64367
    146       0.00000          -0.206747           -5.62586
    147       0.00000          -0.189919           -5.16795
    148       0.00000          -0.189539           -5.15761
    149       0.00000          -0.182307           -4.96082
    150       0.00000          -0.161949           -4.40686
    151       0.00000          -0.152875           -4.15993
    152       0.00000          -0.120699           -3.28440
    153       0.00000          -0.108490           -2.95217
    154       0.00000          -0.107290           -2.91950
    155       0.00000          -0.081765           -2.22495
    156       0.00000          -0.080869           -2.20055
    157       0.00000          -0.077273           -2.10271
    158       0.00000          -0.068531           -1.86482
    159       0.00000          -0.067538           -1.83780
    160       0.00000          -0.065059           -1.77035
    161       0.00000          -0.063617           -1.73111
    162       0.00000          -0.054539           -1.48409
    163       0.00000          -0.049985           -1.36017
    164       0.00000          -0.046599           -1.26803
    165       0.00000          -0.045664           -1.24258
    166       0.00000          -0.038605           -1.05050
    167       0.00000          -0.036272           -0.98702
    168       0.00000          -0.034587           -0.94115
    169       0.00000          -0.031497           -0.85709
    170       0.00000          -0.028373           -0.77207
    171       0.00000          -0.024718           -0.67261
    172       0.00000          -0.020595           -0.56041
    173       0.00000          -0.017821           -0.48494
    174       0.00000          -0.014162           -0.38536
    175       0.00000          -0.011710           -0.31865
    176       0.00000          -0.008138           -0.22146
    177       0.00000          -0.003456           -0.09404
    178       0.00000          -0.000230           -0.00626
    179       0.00000           0.000521            0.01417
    180       0.00000           0.002587            0.07039
    181       0.00000           0.004234            0.11522
    182       0.00000           0.007708            0.20974
    183       0.00000           0.009974            0.27142
    184       0.00000           0.013180            0.35864
    185       0.00000           0.013978            0.38036
    186       0.00000           0.018252            0.49665
    187       0.00000           0.018384            0.50027
    188       0.00000           0.020840            0.56710
    189       0.00000           0.025447            0.69245
    190       0.00000           0.029663            0.80716
    191       0.00000           0.030024            0.81698
    192       0.00000           0.031582            0.85940
    193       0.00000           0.035339            0.96162
    194       0.00000           0.036818            1.00186
    195       0.00000           0.040026            1.08915
    196       0.00000           0.041096            1.11829
    197       0.00000           0.043904            1.19469
    198       0.00000           0.044280            1.20493
    199       0.00000           0.046389            1.26232
    200       0.00000           0.048562            1.32145
    201       0.00000           0.050849            1.38366
    202       0.00000           0.052276            1.42249
    203       0.00000           0.053324            1.45102
    204       0.00000           0.056921            1.54889
    205       0.00000           0.057397            1.56185
    206       0.00000           0.060978            1.65929
    207       0.00000           0.062209            1.69279
    208       0.00000           0.068413            1.86162
    209       0.00000           0.071626            1.94904
    210       0.00000           0.073761            2.00713
    211       0.00000           0.075190            2.04604
    212       0.00000           0.076012            2.06840
    213       0.00000           0.078260            2.12957
    214       0.00000           0.079727            2.16949
    215       0.00000           0.082472            2.24419
    216       0.00000           0.084551            2.30074
    217       0.00000           0.089700            2.44087
    218       0.00000           0.090337            2.45820
    219       0.00000           0.091758            2.49687
    220       0.00000           0.094832            2.58050
    221       0.00000           0.095877            2.60893
    222       0.00000           0.103175            2.80752
    223       0.00000           0.104161            2.83438
    224       0.00000           0.107537            2.92623
    225       0.00000           0.112841            3.07057
    226       0.00000           0.114126            3.10552
    227       0.00000           0.114483            3.11525
    228       0.00000           0.117320            3.19244
    229       0.00000           0.117549            3.19866
    230       0.00000           0.119822            3.26052
    231       0.00000           0.122257            3.32678
    232       0.00000           0.122657            3.33765
    233       0.00000           0.126146            3.43261
    234       0.00000           0.128506            3.49684
    235       0.00000           0.130254            3.54439
    236       0.00000           0.130747            3.55780
    237       0.00000           0.132579            3.60767
    238       0.00000           0.138576            3.77083
    239       0.00000           0.139381            3.79275
    240       0.00000           0.141129            3.84032
    241       0.00000           0.142452            3.87633
    242       0.00000           0.144695            3.93734
    243       0.00000           0.147453            4.01240
    244       0.00000           0.149341            4.06378
    245       0.00000           0.150021            4.08228
    246       0.00000           0.151018            4.10940
    247       0.00000           0.152844            4.15909
    248       0.00000           0.155157            4.22205
    249       0.00000           0.158608            4.31593
    250       0.00000           0.159871            4.35030
    251       0.00000           0.160602            4.37020
    252       0.00000           0.162205            4.41383
    253       0.00000           0.162340            4.41750
    254       0.00000           0.164797            4.48436
    255       0.00000           0.167992            4.57131
    256       0.00000           0.172303            4.68860
    257       0.00000           0.175198            4.76739
    258       0.00000           0.178240            4.85017
    259       0.00000           0.179746            4.89115
    260       0.00000           0.180776            4.91915
    261       0.00000           0.183512            4.99360
    262       0.00000           0.187004            5.08863
    263       0.00000           0.188313            5.12426
    264       0.00000           0.191552            5.21239
    265       0.00000           0.192633            5.24182
    266       0.00000           0.194799            5.30076
    267       0.00000           0.196656            5.35127
    268       0.00000           0.199193            5.42033
    269       0.00000           0.201359            5.47925
    270       0.00000           0.204963            5.57731
    271       0.00000           0.206935            5.63099
    272       0.00000           0.209577            5.70287
    273       0.00000           0.213996            5.82312
    274       0.00000           0.215444            5.86252
    275       0.00000           0.219127            5.96275
    276       0.00000           0.219383            5.96972
    277       0.00000           0.223436            6.08001
    278       0.00000           0.228348            6.21367
    279       0.00000           0.230135            6.26230
    280       0.00000           0.233419            6.35164
    281       0.00000           0.235333            6.40372
    282       0.00000           0.239275            6.51099
    283       0.00000           0.242175            6.58991
    284       0.00000           0.246294            6.70201
    285       0.00000           0.247450            6.73346
    286       0.00000           0.247661            6.73920
    287       0.00000           0.248938            6.77396
    288       0.00000           0.251867            6.85365
    289       0.00000           0.253443            6.89652
    290       0.00000           0.255593            6.95504
    291       0.00000           0.257654            7.01113
    292       0.00000           0.260873            7.09872
    293       0.00000           0.261996            7.12928
    294       0.00000           0.264685            7.20244
    295       0.00000           0.268959            7.31873
    296       0.00000           0.269289            7.32774
    297       0.00000           0.273661            7.44670
    298       0.00000           0.275407            7.49422
    299       0.00000           0.277452            7.54986
    300       0.00000           0.282526            7.68793

  Highest occupied state (VBM) at     -9.81747111 eV
  | Occupation number:      2.00000000

  Lowest unoccupied state (CBM) at    -7.01725381 eV
  | Occupation number:      0.00000000

  Overall HOMO-LUMO gap:      2.80021730 eV.
  Calculating total energy contributions from superposition of free atom densities.

  Total energy components:
  | Sum of eigenvalues            :        -979.01914237 Ha      -26640.46631600 eV
  | XC energy correction          :        -231.34187002 Ha       -6295.13257612 eV
  | XC potential correction       :         297.17196706 Ha        8086.46065839 eV
  | Free-atom electrostatic energy:        -703.08288211 Ha      -19131.85864056 eV
  | Hartree energy correction     :           0.00000000 Ha           0.00000000 eV
  | Entropy correction            :           0.00000000 Ha           0.00000000 eV
  | ---------------------------
  | Total energy                  :       -1616.27192745 Ha      -43980.99687429 eV
  | Total energy, T -> 0          :       -1616.27192745 Ha      -43980.99687429 eV  <-- do not rely on this value for anything but (periodic) metals
  | Electronic free energy        :       -1616.27192745 Ha      -43980.99687429 eV

  Derived energy quantities:
  | Kinetic energy                :        1601.95396453 Ha       43591.38528020 eV
  | Electrostatic energy          :       -2986.88402196 Ha      -81277.24957837 eV
  | Energy correction for multipole
  | error in Hartree potential    :           0.00000000 Ha           0.00000000 eV
  | Sum of eigenvalues per atom                           :        -403.64342903 eV
  | Total energy (T->0) per atom                          :        -666.37874052 eV  <-- do not rely on this value for anything but (periodic) metals
  | Electronic free energy per atom                       :        -666.37874052 eV
  Initialize hartree_potential_storage
  Max. number of atoms included in rho_multipole:           66

  End scf initialization - timings             :  max(cpu_time)    wall_clock(cpu1)
  | Time for scf. initialization               :       15.797 s          15.854 s
  | Boundary condition initialization          :        0.001 s           0.004 s
  | Integration                                :       12.434 s          12.439 s
  | Solution of K.-S. eqns.                    :        0.413 s           0.430 s
  | Grid partitioning                          :        0.932 s           0.937 s
  | Preloading free-atom quantities on grid    :        0.013 s           0.016 s
  | Free-atom superposition energy             :        0.123 s           0.124 s
  | Total energy evaluation                    :        0.001 s           0.005 s

  Partial memory accounting:
  | Current value for overall tracked memory usage on task 0  :           8.187 MB
  | Peak value for overall tracked memory usage on task 0     :          48.826 MB after allocating zora_vector2
  | Largest tracked array allocation on task 0 so far         :          16.612 MB  when allocating hamiltonian_shell
  Note:  These values currently only include a subset of arrays which are explicitly tracked.
  The "true" memory usage will be greater.
------------------------------------------------------------

------------------------------------------------------------
          Begin self-consistency iteration #    1

  Date     :  20210620, Time     :  163511.070
------------------------------------------------------------
  Evaluating new KS density.
  Integration grid: deviation in total charge (<rho> - N_e) =   0.000000E+00
  Pulay mixing of updated and previous charge densities.

  Evaluating partitioned Hartree potential by multipole expansion.
  | Analytical far-field extrapolation by fixed multipoles:
  | Hartree multipole sum: apparent total charge =   0.118190E-03
  Summing up the Hartree potential with load balancing.
  Time summed over all CPUs for potential: real work       44.418 s, elapsed       87.685 s
  | RMS charge density error from multipole expansion :   0.161495E-01

  Start compute_balanced_batch_distribution
  Done load balancing, time needed:      0.009 s
  Integrating Hamiltonian matrix: batch-based integration with load balancing
  Time summed over all CPUs for integration: real work      342.460 s, elapsed      382.167 s
  Time get_set_full_local_matrix_scalapack:     0.034137 s
  Start compute_balanced_batch_distribution
  Done load balancing, time needed:      0.010 s

  Updating Kohn-Sham eigenvalues and eigenvectors using ELSI and the ELPA eigensolver.
  Finished transformation to standard eigenproblem
  | Time :     0.034 s
  Starting ELPA eigensolver
  Finished solving standard eigenproblem
  | Time :     0.163 s
  Finished back-transformation of eigenvectors
  | Time :     0.008 s

  Obtaining occupation numbers and chemical potential using ELSI.
  | Chemical potential (Fermi level):    -4.95948044 eV
  Writing Kohn-Sham eigenvalues.

  State    Occupation    Eigenvalue [Ha]    Eigenvalue [eV]
      1       2.00000          -9.992115         -271.89929
      2       2.00000          -9.984914         -271.70335
      3       2.00000          -9.984029         -271.67926
      4       2.00000          -9.974655         -271.42418
      5       2.00000          -9.973950         -271.40499
      6       2.00000          -9.972903         -271.37651
      7       2.00000          -9.962358         -271.08955
      8       2.00000          -9.960291         -271.03332
      9       2.00000          -9.959618         -271.01499
     10       2.00000          -9.958985         -270.99777
     11       2.00000          -9.957417         -270.95510
     12       2.00000          -9.955601         -270.90568
     13       2.00000          -9.955428         -270.90097
     14       2.00000          -9.954999         -270.88929
     15       2.00000          -9.954286         -270.86989
     16       2.00000          -9.953841         -270.85780
     17       2.00000          -9.952818         -270.82995
     18       2.00000          -9.951998         -270.80765
     19       2.00000          -9.951623         -270.79743
     20       2.00000          -9.950487         -270.76652
     21       2.00000          -9.950166         -270.75780
     22       2.00000          -9.948693         -270.71770
     23       2.00000          -9.948387         -270.70937
     24       2.00000          -9.947774         -270.69269
     25       2.00000          -9.947624         -270.68861
     26       2.00000          -9.947143         -270.67553
     27       2.00000          -9.946875         -270.66825
     28       2.00000          -9.946287         -270.65224
     29       2.00000          -9.945483         -270.63036
     30       2.00000          -9.944872         -270.61374
     31       2.00000          -9.944443         -270.60206
     32       2.00000          -9.943485         -270.57598
     33       2.00000          -9.942331         -270.54458
     34       2.00000          -9.941793         -270.52996
     35       2.00000          -9.939836         -270.47669
     36       2.00000          -9.938863         -270.45022
     37       2.00000          -9.938371         -270.43684
     38       2.00000          -9.938369         -270.43678
     39       2.00000          -9.938210         -270.43246
     40       2.00000          -9.935309         -270.35352
     41       2.00000          -9.935234         -270.35147
     42       2.00000          -9.933782         -270.31195
     43       2.00000          -0.869494          -23.66012
     44       2.00000          -0.861757          -23.44960
     45       2.00000          -0.859377          -23.38483
     46       2.00000          -0.832109          -22.64284
     47       2.00000          -0.829967          -22.58456
     48       2.00000          -0.812147          -22.09963
     49       2.00000          -0.806619          -21.94921
     50       2.00000          -0.805357          -21.91487
     51       2.00000          -0.793165          -21.58311
     52       2.00000          -0.778375          -21.18067
     53       2.00000          -0.760496          -20.69416
     54       2.00000          -0.748397          -20.36492
     55       2.00000          -0.747020          -20.32745
     56       2.00000          -0.738053          -20.08346
     57       2.00000          -0.733013          -19.94629
     58       2.00000          -0.729263          -19.84427
     59       2.00000          -0.727274          -19.79013
     60       2.00000          -0.708416          -19.27697
     61       2.00000          -0.700608          -19.06451
     62       2.00000          -0.699183          -19.02575
     63       2.00000          -0.693140          -18.86131
     64       2.00000          -0.639143          -17.39197
     65       2.00000          -0.637090          -17.33609
     66       2.00000          -0.626252          -17.04120
     67       2.00000          -0.619317          -16.85246
     68       2.00000          -0.614742          -16.72799
     69       2.00000          -0.613295          -16.68861
     70       2.00000          -0.611513          -16.64012
     71       2.00000          -0.609472          -16.58459
     72       2.00000          -0.603002          -16.40852
     73       2.00000          -0.601170          -16.35866
     74       2.00000          -0.585926          -15.94387
     75       2.00000          -0.551484          -15.00663
     76       2.00000          -0.536094          -14.58785
     77       2.00000          -0.532088          -14.47884
     78       2.00000          -0.527366          -14.35037
     79       2.00000          -0.524395          -14.26951
     80       2.00000          -0.517352          -14.07788
     81       2.00000          -0.515562          -14.02916
     82       2.00000          -0.512912          -13.95704
     83       2.00000          -0.510316          -13.88640
     84       2.00000          -0.506840          -13.79182
     85       2.00000          -0.505518          -13.75584
     86       2.00000          -0.491937          -13.38629
     87       2.00000          -0.489635          -13.32364
     88       2.00000          -0.475224          -12.93151
     89       2.00000          -0.469981          -12.78883
     90       2.00000          -0.463712          -12.61825
     91       2.00000          -0.456224          -12.41450
     92       2.00000          -0.448636          -12.20802
     93       2.00000          -0.446754          -12.15680
     94       2.00000          -0.443341          -12.06393
     95       2.00000          -0.440011          -11.97330
     96       2.00000          -0.439182          -11.95074
     97       2.00000          -0.437230          -11.89764
     98       2.00000          -0.428738          -11.66655
     99       2.00000          -0.424148          -11.54165
    100       2.00000          -0.421178          -11.46084
    101       2.00000          -0.417643          -11.36464
    102       2.00000          -0.412846          -11.23411
    103       2.00000          -0.411894          -11.20820
    104       2.00000          -0.410723          -11.17633
[...]
    130       2.00000          -0.247065           -6.72298
    131       2.00000          -0.235554           -6.40976
    132       2.00000          -0.233012           -6.34057
    133       2.00000          -0.231439           -6.29779
    134       2.00000          -0.225584           -6.13846
    135       2.00000          -0.197838           -5.38345
    136       2.00000          -0.196550           -5.34841
    137       2.00000          -0.187168           -5.09309
    138       2.00000          -0.183883           -5.00372
    139       0.00000          -0.086405           -2.35121
    140       0.00000          -0.083724           -2.27826
    141       0.00000          -0.076456           -2.08047
    142       0.00000          -0.060716           -1.65215
    143       0.00000          -0.058216           -1.58413
    144       0.00000          -0.048748           -1.32650
    145       0.00000          -0.041054           -1.11713
    146       0.00000          -0.038410           -1.04520
    147       0.00000          -0.021551           -0.58644
    148       0.00000          -0.020343           -0.55357
    149       0.00000          -0.016787           -0.45679
    150       0.00000          -0.009561           -0.26018
    151       0.00000          -0.005082           -0.13830
    152       0.00000          -0.001478           -0.04021
    153       0.00000           0.004827            0.13136
    154       0.00000           0.007821            0.21283
    155       0.00000           0.011888            0.32349
    156       0.00000           0.012544            0.34135
    157       0.00000           0.019036            0.51800
    158       0.00000           0.020247            0.55096
    159       0.00000           0.021205            0.57702
    160       0.00000           0.024960            0.67919
    161       0.00000           0.028818            0.78419
    162       0.00000           0.029357            0.79885
    163       0.00000           0.037624            1.02380
    164       0.00000           0.038549            1.04897
    165       0.00000           0.043696            1.18902
    166       0.00000           0.045451            1.23678
    167       0.00000           0.048761            1.32686
    168       0.00000           0.053236            1.44864
    169       0.00000           0.056607            1.54037
    170       0.00000           0.057087            1.55342
    171       0.00000           0.061195            1.66519
    172       0.00000           0.070821            1.92714
    173       0.00000           0.073426            1.99801
    174       0.00000           0.075993            2.06788
    175       0.00000           0.079870            2.17338
    176       0.00000           0.081271            2.21149
    177       0.00000           0.084953            2.31169
    178       0.00000           0.088682            2.41316
    179       0.00000           0.092321            2.51220
    180       0.00000           0.093617            2.54745
    181       0.00000           0.101199            2.75375
    182       0.00000           0.104679            2.84846
    183       0.00000           0.114002            3.10215
    184       0.00000           0.115969            3.15567
    185       0.00000           0.118224            3.21704
    186       0.00000           0.122509            3.33363
    187       0.00000           0.122920            3.34483
    188       0.00000           0.127666            3.47396
    189       0.00000           0.128442            3.49508
    190       0.00000           0.133389            3.62971
    191       0.00000           0.139300            3.79054
    192       0.00000           0.142617            3.88080
    193       0.00000           0.146648            3.99049
    194       0.00000           0.147757            4.02069
    195       0.00000           0.153367            4.17332
    196       0.00000           0.154088            4.19296
    197       0.00000           0.154374            4.20073
    198       0.00000           0.157327            4.28107
    199       0.00000           0.161542            4.39579
    200       0.00000           0.162731            4.42813
    201       0.00000           0.166337            4.52626
    202       0.00000           0.170064            4.62767
    203       0.00000           0.172289            4.68822
    204       0.00000           0.175070            4.76390
    205       0.00000           0.179957            4.89687
    206       0.00000           0.180285            4.90582
    207       0.00000           0.182674            4.97081
    208       0.00000           0.184921            5.03197
    209       0.00000           0.185719            5.05368
    210       0.00000           0.187295            5.09655
    211       0.00000           0.189138            5.14670
    212       0.00000           0.190691            5.18897
    213       0.00000           0.193827            5.27431
    214       0.00000           0.195378            5.31652
    215       0.00000           0.197696            5.37959
    216       0.00000           0.198682            5.40642
    217       0.00000           0.199248            5.42181
    218       0.00000           0.203341            5.53318
    219       0.00000           0.206599            5.62183
    220       0.00000           0.208698            5.67897
    221       0.00000           0.211647            5.75922
    222       0.00000           0.212799            5.79056
    223       0.00000           0.213753            5.81652
    224       0.00000           0.217074            5.90688
    225       0.00000           0.217713            5.92427
    226       0.00000           0.222610            6.05752
    227       0.00000           0.223495            6.08160
    228       0.00000           0.225365            6.13248
    229       0.00000           0.226468            6.16251
    230       0.00000           0.228323            6.21299
    231       0.00000           0.230461            6.27115
    232       0.00000           0.232820            6.33536
    233       0.00000           0.233863            6.36373
    234       0.00000           0.234654            6.38526
    235       0.00000           0.235488            6.40794
    236       0.00000           0.239047            6.50481
    237       0.00000           0.239753            6.52402
    238       0.00000           0.240526            6.54503
    239       0.00000           0.248217            6.75432
    240       0.00000           0.249293            6.78360
    241       0.00000           0.249646            6.79322
    242       0.00000           0.251233            6.83638
    243       0.00000           0.256387            6.97664
    244       0.00000           0.257178            6.99818
    245       0.00000           0.258752            7.04100
    246       0.00000           0.260006            7.07514
    247       0.00000           0.261050            7.10352
    248       0.00000           0.263710            7.17590
    249       0.00000           0.265463            7.22361
    250       0.00000           0.267558            7.28061
    251       0.00000           0.267817            7.28768
    252       0.00000           0.270556            7.36220
    253       0.00000           0.273969            7.45508
    254       0.00000           0.278074            7.56679
    255       0.00000           0.280681            7.63772
    256       0.00000           0.283150            7.70489
    257       0.00000           0.283600            7.71715
    258       0.00000           0.287027            7.81040
    259       0.00000           0.293218            7.97886
    260       0.00000           0.294980            8.02682
    261       0.00000           0.296889            8.07875
    262       0.00000           0.297753            8.10226
    263       0.00000           0.299958            8.16228
    264       0.00000           0.303340            8.25429
    265       0.00000           0.304510            8.28614
    266       0.00000           0.306209            8.33237
    267       0.00000           0.308099            8.38380
    268       0.00000           0.309609            8.42489
    269       0.00000           0.312420            8.50138
    270       0.00000           0.319484            8.69359
    271       0.00000           0.319863            8.70392
    272       0.00000           0.320763            8.72841
    273       0.00000           0.323545            8.80412
    274       0.00000           0.324102            8.81927
    275       0.00000           0.325623            8.86064
    276       0.00000           0.331342            9.01628
    277       0.00000           0.332057            9.03573
    278       0.00000           0.335213            9.12161
    279       0.00000           0.336120            9.14630
    280       0.00000           0.341313            9.28761
    281       0.00000           0.343983            9.36027
    282       0.00000           0.345594            9.40408
    283       0.00000           0.347407            9.45342
    284       0.00000           0.350335            9.53309
    285       0.00000           0.351468            9.56392
    286       0.00000           0.358893            9.76598
    287       0.00000           0.360104            9.79894
    288       0.00000           0.363945            9.90345
    289       0.00000           0.366682            9.97792
    290       0.00000           0.369929           10.06629
    291       0.00000           0.378084           10.28818
    292       0.00000           0.384156           10.45341
    293       0.00000           0.385174           10.48112
    294       0.00000           0.393334           10.70315
    295       0.00000           0.395748           10.76884
    296       0.00000           0.401656           10.92962
    297       0.00000           0.405739           11.04072
    298       0.00000           0.411246           11.19057
    299       0.00000           0.415440           11.30468
    300       0.00000           0.418437           11.38625

  Highest occupied state (VBM) at     -5.00371653 eV
  | Occupation number:      2.00000000

  Lowest unoccupied state (CBM) at    -2.35121093 eV
  | Occupation number:      0.00000000

  Overall HOMO-LUMO gap:      2.65250560 eV.

  Total energy components:
  | Sum of eigenvalues            :        -918.34837943 Ha      -24989.53085768 eV
  | XC energy correction          :        -235.55200171 Ha       -6409.69608835 eV
  | XC potential correction       :         302.60723385 Ha        8234.36179286 eV
  | Free-atom electrostatic energy:        -703.08288211 Ha      -19131.85864056 eV
  | Hartree energy correction     :         -59.93681361 Ha       -1630.96368080 eV
  | Entropy correction            :           0.00000000 Ha           0.00000000 eV
  | ---------------------------
  | Total energy                  :       -1614.31284301 Ha      -43927.68747453 eV
  | Total energy, T -> 0          :       -1614.31284301 Ha      -43927.68747453 eV  <-- do not rely on this value for anything but (periodic) metals
  | Electronic free energy        :       -1614.31284301 Ha      -43927.68747453 eV

  Derived energy quantities:
  | Kinetic energy                :        1610.61652085 Ha       43827.10543089 eV
  | Electrostatic energy          :       -2989.37736215 Ha      -81345.09681707 eV
  | Energy correction for multipole
  | error in Hartree potential    :          -0.20606744 Ha          -5.60738024 eV
  | Sum of eigenvalues per atom                           :        -378.62925542 eV
  | Total energy (T->0) per atom                          :        -665.57102234 eV  <-- do not rely on this value for anything but (periodic) metals
  | Electronic free energy per atom                       :        -665.57102234 eV
  End evaluation of scaled ZORA corrections.
  | Time for scaled ZORA corrections           :       12.766 s          12.778 s
------------------------------------------------------------

  Energy and forces in a compact form:
  | Total energy uncorrected      :         -0.439276874745291E+05 eV
  | Total energy corrected        :         -0.439276874745291E+05 eV  <-- do not rely on this value for anything but (periodic) metals
  | Electronic free energy        :         -0.439276874745291E+05 eV

  ------------------------------------ 
  Start decomposition of the XC Energy 
  ------------------------------------ 
  X and C from original XC functional choice 
  Hartree-Fock Energy :          0.000000000 Ha              0.000000000 eV
  X Energy            :       -226.258546939 Ha          -6156.808317176 eV
  C Energy            :         -9.293454773 Ha           -252.887771172 eV
  Total XC Energy     :       -235.552001713 Ha          -6409.696088348 eV
  ------------------------------------ 
  LDA X and C from self-consistent density 
  X Energy LDA        :       -204.980765422 Ha          -5577.810422990 eV
  C Energy LDA        :        -17.857620140 Ha           -485.930567883 eV
  ------------------------------------ 
  End decomposition of the XC Energy 
  ------------------------------------ 

------------------------------------------------------------

------------------------------------------------------------------------------
  Final output of selected total energy values:

  The following output summarizes some interesting total energy values
  at the end of a run (AFTER all relaxation, molecular dynamics, etc.).

  | Total energy of the DFT / Hartree-Fock s.c.f. calculation      :         -43927.687474529 eV
  | Final zero-broadening corrected energy (caution - metals only) :         -43927.687474529 eV
  | For reference only, the value of 1 Hartree used in FHI-aims is :             27.211384500 eV

  Before relying on these values, please be sure to understand exactly which
  total energy value is referred to by a given number. Different objects may
  all carry the same name 'total energy'. Definitions:

  Total energy of the DFT / Hartree-Fock s.c.f. calculation:
  | Note that this energy does not include ANY quantities calculated after the
  | s.c.f. cycle, in particular not ANY RPA, MP2, etc. many-body perturbation terms.
  | Scalar relativistic effects have been included in the 'scaled ZORA' approximation.

  Final zero-broadening corrected energy:
  | For metallic systems only, a broadening of the occupation numbers at the Fermi
  | level can be extrapolated back to zero broadening by an electron-gas inspired
  | formula. For all systems that are not real metals, this value can be
  | meaningless and should be avoided.

------------------------------------------------------------------------------
  Methods described in the following list of references were used in this FHI-aims run.
  If you publish the results, please make sure to cite these reference if they apply.
  FHI-aims is an academic code, and for our developers (often, Ph.D. students
  and postdocs), scientific credit in the community is essential.
  Thank you for helping us!

  For any use of FHI-aims, please cite:

    Volker Blum, Ralf Gehrke, Felix Hanke, Paula Havu, Ville Havu,
    Xinguo Ren, Karsten Reuter, and Matthias Scheffler
    'Ab initio molecular simulations with numeric atom-centered orbitals'
    Computer Physics Communications 180, 2175-2196 (2009)
    http://dx.doi.org/10.1016/j.cpc.2009.06.022


  The scalable eigensolver library ELPA was used in your run.
  ELPA is essential especially for large systems on hundreds or thousands of CPUs.
  For ELPA, please cite:

    Andreas Marek, Volker Blum, Rainer Johanni, Ville Havu, Bruno Lang,
    Thomas Auckenthaler, Alexander Heinecke, Hans-Joachim Bungartz, and Hermann Lederer,
    'The ELPA Library - Scalable Parallel Eigenvalue Solutions
    for Electronic Structure Theory and Computational Science'
    The Journal of Physics: Condensed Matter 26, 213201 (2014).
    http://dx.doi.org/10.1088/0953-8984/26/21/213201


  The ELSI infrastructure was used in your run to solve the Kohn-Sham electronic structure.
  Please check out http://elsi-interchange.org to learn more.
  If scalability is important for your project, please acknowledge ELSI by citing:

    V. W-z. Yu, F. Corsetti, A. Garcia, W. P. Huhn, M. Jacquelin, W. Jia,
    B. Lange, L. Lin, J. Lu, W. Mi, A. Seifitokaldani, A. Vazquez-Mayagoitia,
    C. Yang, H. Yang, and V. Blum
    'ELSI: A unified software interface for Kohn-Sham electronic structure solvers'
    Computer Physics Communications 222, 267-285 (2018).
    http://dx.doi.org/10.1016/j.cpc.2017.09.007


  For the real-space grid partitioning and parallelization used in this calculation, please cite:

    Ville Havu, Volker Blum, Paula Havu, and Matthias Scheffler,
    'Efficient O(N) integration for all-electron electronic structure calculation'
    'using numerically tabulated basis functions'
    Journal of Computational Physics 228, 8367-8379 (2009).
    http://dx.doi.org/10.1016/j.jcp.2009.08.008

  Of course, there are many other important community references, e.g., those cited in the
  above references. Our list is limited to references that describe implementations in the
  FHI-aims code. The reason is purely practical (length of this list) - please credit others as well.

------------------------------------------------------------
          Leaving FHI-aims.
          Date     :  20210620, Time     :  163832.812

          Computational steps:
          | Number of self-consistency cycles          :           18
          | Number of SCF (re)initializations          :            1

          Detailed time accounting                     :  max(cpu_time)    wall_clock(cpu1)
          | Total time                                 :      217.775 s         217.968 s
          | Preparation time                           :        0.189 s           0.174 s
          | Boundary condition initalization           :        0.001 s           0.004 s
          | Grid partitioning                          :        0.932 s           0.937 s
          | Preloading free-atom quantities on grid    :        0.013 s           0.016 s
          | Free-atom superposition energy             :        0.123 s           0.124 s
          | Total time for integrations                :      129.639 s         129.647 s
          | Total time for solution of K.-S. equations :        5.548 s           5.572 s
          | Total time for density update              :       48.909 s          48.856 s
          | Total time for mixing                      :        0.201 s           0.205 s
          | Total time for Hartree multipole update    :        0.237 s           0.242 s
          | Total time for Hartree multipole sum       :       17.040 s          17.041 s
          | Total time for total energy evaluation     :        0.007 s           0.034 s
          | Total time for scaled ZORA corrections     :       12.766 s          12.778 s

          Partial memory accounting:
          | Residual value for overall tracked memory usage across tasks :     0.000000 MB (should be 0.000000 MB)
          | Peak values for overall tracked memory usage (after allocating zora_vector2):
          |   Minimum:       47.115 MB (on task 40)
          |   Maximum:       60.518 MB (on task 13)
          |   Average:       54.585 MB
          | Largest tracked array allocation (hamiltonian_shell):
          |   Minimum:       16.612 MB (on task  1)
          |   Maximum:       16.612 MB (on task  1)
          |   Average:       16.612 MB
          Note:  These values currently only include a subset of arrays which are explicitly tracked.
          The "true" memory usage will be greater.

          Have a nice day.
------------------------------------------------------------
