  MPI-parallelism will be employed.
------------------------------------------------------------
          Invoking FHI-aims ...
          Version 180607
          Git rev. (modified): 6724847 Fix JSON memory corruption in scf_solver
          Compiled on 2018/06/27 at 16:00:31 on host coe.psc.edu.

          When using FHI-aims, please cite the following reference:

          Volker Blum, Ralf Gehrke, Felix Hanke, Paula Havu,
          Ville Havu, Xinguo Ren, Karsten Reuter, and Matthias Scheffler,
          'Ab Initio Molecular Simulations with Numeric Atom-Centered Orbitals',
          Computer Physics Communications 180, 2175-2196 (2009)

          For any questions about FHI-aims, please visit the aimsclub website
          with its forums and wiki. Contributions to both the forums and the
          wiki are warmly encouraged - they are for you, and everyone is welcome there.

------------------------------------------------------------



  Date     :  20210620, Time     :  174954.635
  Time zero on CPU 1             :   0.266198000000000E+00  s.
  Internal wall clock time zero  :           393443394.635  s.

  FHI-aims created a unique identifier for this run for later identification
  aims_uuid : 56450D8C-614C-478A-A4DF-6C54701CE037

  Using       56 parallel tasks.
  Task        0 on host d001 reporting.
  Task        1 on host d001 reporting.
  Task        2 on host d001 reporting.
  Task        3 on host d001 reporting.
  Task        4 on host d001 reporting.
  Task        5 on host d001 reporting.
  Task        6 on host d001 reporting.
  Task        7 on host d001 reporting.
  Task        8 on host d001 reporting.
  Task        9 on host d001 reporting.
  Task       10 on host d001 reporting.
  Task       11 on host d001 reporting.
  Task       12 on host d001 reporting.
  Task       13 on host d001 reporting.
  Task       14 on host d001 reporting.
  Task       15 on host d001 reporting.
  Task       16 on host d001 reporting.
  Task       17 on host d001 reporting.
  Task       18 on host d001 reporting.
  Task       19 on host d001 reporting.
  Task       20 on host d001 reporting.
  Task       21 on host d001 reporting.
  Task       22 on host d001 reporting.
  Task       23 on host d001 reporting.
  Task       24 on host d001 reporting.
  Task       25 on host d001 reporting.
  Task       26 on host d001 reporting.
  Task       27 on host d001 reporting.
  Task       28 on host d001 reporting.
  Task       29 on host d001 reporting.
  Task       30 on host d001 reporting.
  Task       31 on host d001 reporting.
  Task       32 on host d001 reporting.
  Task       33 on host d001 reporting.
  Task       34 on host d001 reporting.
  Task       35 on host d001 reporting.
  Task       36 on host d001 reporting.
  Task       37 on host d001 reporting.
  Task       38 on host d001 reporting.
  Task       39 on host d001 reporting.
  Task       40 on host d001 reporting.
  Task       41 on host d001 reporting.
  Task       42 on host d001 reporting.
  Task       43 on host d001 reporting.
  Task       44 on host d001 reporting.
  Task       45 on host d001 reporting.
  Task       46 on host d001 reporting.
  Task       47 on host d001 reporting.
  Task       48 on host d001 reporting.
  Task       49 on host d001 reporting.
  Task       50 on host d001 reporting.
  Task       51 on host d001 reporting.
  Task       52 on host d001 reporting.
  Task       53 on host d001 reporting.
  Task       54 on host d001 reporting.
  Task       55 on host d001 reporting.

  Performing system and environment tests:
  *** Environment variable OMP_NUM_THREADS is not set
  *** For performance reasons you might want to set it to 1
  | Stacksize not measured: no C compiler
  | Checking for scalapack...
  | Testing pdtran()...
  | All pdtran() tests passed.

  Obtaining array dimensions for all initial allocations:
  
  -----------------------------------------------------------------------
  Parsing control.in (first pass over file, find array dimensions only).
  The contents of control.in will be repeated verbatim below
  unless switched off by setting 'verbatim_writeout .false.' .
  in the first line of control.in .
  -----------------------------------------------------------------------
  
  #===============================================================================
  # FHI-aims file: ./Runs/es/control.in
  # Created using the Atomic Simulation Environment (ASE)
  # Mon Jan 13 16:04:38 2020
  #===============================================================================
  xc                                 pbe
  relativistic                       zora scalar 1e-12
  occupation_type                    gaussian 0.0001
  load_balancing                     .true.
  KS_method                          scalapack_fast
  mixer                              pulay
  n_max_pulay                        5
  charge_mix_param                   0.4
  sc_accuracy_etot                   1e-6
  sc_accuracy_eev                    1e-4
  sc_accuracy_rho                    1e-6
  sc_iter_limit                      100
  prodbas_threshold                  1e-4
  basis_threshold                    1e-5
  override_illconditioning           .true.
  use_logsbt                         .true.
  spin                               none
  charge                             0
  #===============================================================================
  
  ################################################################################
  #
  #  FHI-aims code project
  # Volker Blum, Fritz Haber Institute Berlin, 2009
  #
  #  Suggested "tight" defaults for H atom (to be pasted into control.in file)
  #
  ################################################################################
    species        H
  #     global species definitions
      nucleus             1
      mass                1.00794
  #
      l_hartree           6
  #
      cut_pot             4.0  2.0  1.0
      basis_dep_cutoff    1e-4
  #
      radial_base         24 7.0
      radial_multiplier   2
      angular_grids       specified
        division   0.1930   50
        division   0.3175  110
        division   0.4293  194
        division   0.5066  302
        division   0.5626  434
  #      division   0.5922  590
  #      division   0.6227  974
  #      division   0.6868 1202
  #      outer_grid  770
        outer_grid  434
  ################################################################################
  #
  #  Definition of "minimal" basis
  #
  ################################################################################
  #     valence basis states
      valence      1  s   1.
  #     ion occupancy
      ion_occ      1  s   0.5
  ################################################################################
  #
  #  Suggested additional basis functions. For production calculations,
  #  uncomment them one after another (the most important basis functions are
  #  listed first).
  #
  #  Basis constructed for dimers: 0.5 A, 0.7 A, 1.0 A, 1.5 A, 2.5 A
  #
  ################################################################################
  #  "First tier" - improvements: -1014.90 meV to -62.69 meV
       hydro 2 s 2.1
       hydro 2 p 3.5
  #  "Second tier" - improvements: -12.89 meV to -1.83 meV
       hydro 1 s 0.85
       hydro 2 p 3.7
       hydro 2 s 1.2
       hydro 3 d 7
  #  "Third tier" - improvements: -0.25 meV to -0.12 meV
  #     hydro 4 f 11.2
  #     hydro 3 p 4.8
  #     hydro 4 d 9
  #     hydro 3 s 3.2
  ################################################################################
  #
  # For methods that use the localized form of the "resolution of identity" for
  # the two-electron Coulomb operator (RI_method LVL), particularly Hartree-Fock and
  # hybrid density functional calculations, the highest accuracy can be obtained by
  # uncommenting the line beginning with "for_aux"  below, thus adding an extra g radial
  # function to the construction of the product basis set for the expansion.
  # See Ref. New J. Phys. 17, 093020 (2015) for more information, particularly Figs. 1 and 6.
  #
  ################################################################################
  #
  # for_aux hydro 5 g 6.0
  ################################################################################
  #
  #  FHI-aims code project
  # Volker Blum, Fritz Haber Institute Berlin, 2009
  #
  #  Suggested "tight" defaults for C atom (to be pasted into control.in file)
  #
  ################################################################################
    species        C
  #     global species definitions
      nucleus             6
      mass                12.0107
  #
      l_hartree           6
  #
      cut_pot             4.0  2.0  1.0
      basis_dep_cutoff    1e-4
  #
      radial_base         34 7.0
      radial_multiplier   2
      angular_grids specified
        division   0.2187   50
        division   0.4416  110
        division   0.6335  194
        division   0.7727  302
        division   0.8772  434
  #      division   0.9334  590
  #      division   0.9924  770
  #      division   1.0230  974
  #      division   1.5020 1202
  #     outer_grid  974
        outer_grid  434
  ################################################################################
  #
  #  Definition of "minimal" basis
  #
  ################################################################################
  #     valence basis states
      valence      2  s   2.
      valence      2  p   2.
  #     ion occupancy
      ion_occ      2  s   1.
      ion_occ      2  p   1.
  ################################################################################
  #
  #  Suggested additional basis functions. For production calculations,
  #  uncomment them one after another (the most important basis functions are
  #  listed first).
  #
  #  Constructed for dimers: 1.0 A, 1.25 A, 1.5 A, 2.0 A, 3.0 A
  #
  ################################################################################
  #  "First tier" - improvements: -1214.57 meV to -155.61 meV
       hydro 2 p 1.7
       hydro 3 d 6
       hydro 2 s 4.9
  #  "Second tier" - improvements: -67.75 meV to -5.23 meV
       hydro 4 f 9.8
       hydro 3 p 5.2
       hydro 3 s 4.3
       hydro 5 g 14.4
       hydro 3 d 6.2
  #  "Third tier" - improvements: -2.43 meV to -0.60 meV
  #     hydro 2 p 5.6
  #     hydro 2 s 1.4
  #     hydro 3 d 4.9
  #     hydro 4 f 11.2
  #  "Fourth tier" - improvements: -0.39 meV to -0.18 meV
  #     hydro 2 p 2.1
  #     hydro 5 g 16.4
  #     hydro 4 d 13.2
  #     hydro 3 s 13.6
  #     hydro 4 f 17.6
  #  Further basis functions - improvements: -0.08 meV and below
  #     hydro 3 s 2
  #     hydro 3 p 6
  #     hydro 4 d 20
  ################################################################################
  #
  # For methods that use the localized form of the "resolution of identity" for
  # the two-electron Coulomb operator (RI_method LVL), particularly Hartree-Fock and
  # hybrid density functional calculations, the highest accuracy can be obtained by
  # uncommenting the line beginning with "for_aux"  below, thus adding an extra g radial
  # function to the construction of the product basis set for the expansion.
  # See Ref. New J. Phys. 17, 093020 (2015) for more information, particularly Figs. 1 and 6.
  #
  ################################################################################
  #
  # for_aux hydro 5 g 6.0
  
  -----------------------------------------------------------------------
  Completed first pass over input file control.in .
  -----------------------------------------------------------------------
  
  
  -----------------------------------------------------------------------
  Parsing geometry.in (first pass over file, find array dimensions only).
  The contents of geometry.in will be repeated verbatim below
  unless switched off by setting 'verbatim_writeout .false.' .
  in the first line of geometry.in .
  -----------------------------------------------------------------------
  
  #=======================================================
  # FHI-aims file: geometry.in
  # Created using the Atomic Simulation Environment (ASE)
  # Sun Jun 20 15:47:02 2021
  #=======================================================
  atom 15.6852909999999994 30.0145109999999988 45.8863910000000033 C
  atom 14.5118159999999996 30.6185539999999996 46.2636049999999983 C
  atom 15.7943259999999999 29.4151589999999992 44.6581210000000013 C
  atom 16.5347350000000013 29.9894110000000005 46.5687220000000011 H
  atom 13.4570139999999991 30.6103440000000013 45.4144080000000017 C
  atom 14.4264559999999999 31.0803249999999984 47.2478940000000023 H
  atom 14.7304870000000001 29.3975660000000012 43.7829079999999990 C
  atom 16.7204550000000012 28.9095219999999991 44.3799479999999988 H
  atom 12.5223899999999997 31.0952209999999987 45.6992699999999985 H
  atom 13.5395420000000009 30.0016089999999984 44.1656979999999990 C
  atom 14.8750630000000008 28.7512979999999985 42.4561539999999979 C
  atom 12.6888930000000002 30.0094679999999983 43.4855960000000010 H
  atom 14.0738710000000005 27.6558090000000014 42.0306259999999980 C
  atom 15.7913139999999999 29.2791029999999992 41.5586429999999964 C
  atom 13.1226819999999993 26.9567610000000002 42.9318529999999967 C
  atom 14.2738680000000002 27.1737469999999988 40.7540419999999983 C
  atom 15.9744430000000008 28.7806199999999990 40.3136489999999981 C
  atom 16.4035930000000008 30.1220660000000002 41.8812270000000026 H
  atom 11.8877620000000004 26.5087130000000002 42.4617280000000008 C
  atom 13.4552060000000004 26.6342129999999990 44.2437419999999975 C
  atom 13.6845999999999997 26.3089680000000001 40.4385199999999969 H
  atom 15.1461430000000004 27.7179730000000006 39.8565320000000014 C
  atom 16.7179859999999998 29.2264389999999992 39.6541739999999976 H
  atom 11.0203059999999997 25.7850339999999996 43.2588960000000000 C
  atom 11.5846940000000007 26.7462249999999990 41.4415759999999977 H
  atom 12.5751000000000008 25.9293000000000013 45.0724990000000005 C
  atom 14.4241069999999993 26.9282590000000006 44.6432550000000035 H
  atom 15.2668040000000005 27.2939690000000006 38.8627660000000006 H
  atom 10.0683930000000004 25.4436019999999985 42.8575250000000025 H
  atom 11.3739139999999992 25.4894630000000006 44.5986580000000004 C
  atom 12.8864809999999999 25.7021100000000011 46.0924649999999971 H
  atom 10.6941059999999997 24.9138030000000015 45.2271009999999976 H
  
  -----------------------------------------------------------------------
  Completed first pass over input file geometry.in .
  -----------------------------------------------------------------------
  

  Basic array size parameters:
  | Number of species                 :        2
  | Number of atoms                   :       32
  | Max. basis fn. angular momentum   :        4
  | Max. atomic/ionic basis occupied n:        2
  | Max. number of basis fn. types    :        2
  | Max. radial fns per species/type  :        8
  | Max. logarithmic grid size        :     1277
  | Max. radial integration grid size :       69
  | Max. angular integration grid size:      434
  | Max. angular grid division number :        8
  | Radial grid for Hartree potential :     1277
  | Number of spin channels           :        1

------------------------------------------------------------
          Reading file control.in.
------------------------------------------------------------
  XC: Using PBE gradient-corrected functionals.
  Scalar relativistic treatment of kinetic energy: ZORA.
  Threshold value for ZORA:   0.100000E-11
  Occupation type: Gaussian broadening, width =   0.100000E-03 eV.
  Since 'load_balancing .true.' is present in control.in, automatically turning on 'use_local_index .true.'.
  Using load balancing for integrations.
  Kohn-Sham electronic structure solved by the ELSI library.
  Using pulay charge density mixing.
  Pulay mixing - number of memorized iterations:    5
  Charge density mixing - mixing parameter:     0.4000
  Convergence accuracy of total energy:  0.1000E-05
  Convergence accuracy of sum of eigenvalues:  0.1000E-03
  Convergence accuracy of self-consistent charge density:  0.1000E-05
  Maximum number of s.-c. iterations  :   100
  * Ignoring prodbas_threshold
  Threshold for basis singularities:  0.1000E-04
  override_illconditioning: Explicitly overriding any built-in checks for an ill-conditioned overlap matrix.
  *** WARNING: If you use this flag, you should really know what you are doing.
  *** DO NOT keep this flag set by default in all your control.in files.
  Using 1D integrations for auxiliary 2-center integrals.
  Spin treatment: No spin polarisation.
  Charge =   0.000000E+00: Neutral system requested explicitly.
 
  Reading configuration options for species H                   .
  | Found nuclear charge :   1.0000
  | Found atomic mass :    1.00794000000000      amu
  | Found l_max for Hartree potential  :   6
  | Found cutoff potl. onset [A], width [A], scale factor :    4.00000    2.00000    1.00000
  | Threshold for basis-dependent cutoff potential is   0.100000E-03
  | Found data for basic radial integration grid :    24 points, outermost radius =    7.000 A
  | Found multiplier for basic radial grid :   2
  | Found angular grid specification: user-specified.
  | Specified grid contains     6 separate shells.
  | Check grid settings after all constraints further below.
  | Found free-atom valence shell :  1 s   1.000
  | No ionic wave fns used. Skipping ion_occ.
  | Found hydrogenic basis function :  2 s   2.100
  | Found hydrogenic basis function :  2 p   3.500
  | Found hydrogenic basis function :  1 s   0.850
  | Found hydrogenic basis function :  2 p   3.700
  | Found hydrogenic basis function :  2 s   1.200
  | Found hydrogenic basis function :  3 d   7.000
  Species H                   : Missing cutoff potential type.
  Defaulting to exp(1/x)/(1-x)^2 type cutoff potential.
  Species H : No 'logarithmic' tag. Using default grid for free atom:
  | Default logarithmic grid data [bohr] : 0.1000E-03 0.1000E+03 0.1012E+01
  Species H : On-site basis accuracy parameter (for Gram-Schmidt orthonormalisation) not specified.
  Using default value basis_acc =  0.1000000E-03.
  Species H                   : Using default innermost maximum threshold i_radial=  2 for radial functions.
  Species H                   : Default cutoff onset for free atom density etc. : 0.40000000E+01 AA.
  Species H                   : Basic radial grid will be enhanced according to radial_multiplier =   2, to contain    49 grid points.
 
  Reading configuration options for species C                   .
  | Found nuclear charge :   6.0000
  | Found atomic mass :    12.0107000000000      amu
  | Found l_max for Hartree potential  :   6
  | Found cutoff potl. onset [A], width [A], scale factor :    4.00000    2.00000    1.00000
  | Threshold for basis-dependent cutoff potential is   0.100000E-03
  | Found data for basic radial integration grid :    34 points, outermost radius =    7.000 A
  | Found multiplier for basic radial grid :   2
  | Found angular grid specification: user-specified.
  | Specified grid contains     6 separate shells.
  | Check grid settings after all constraints further below.
  | Found free-atom valence shell :  2 s   2.000
  | Found free-atom valence shell :  2 p   2.000
  | No ionic wave fns used. Skipping ion_occ.
  | No ionic wave fns used. Skipping ion_occ.
  | Found hydrogenic basis function :  2 p   1.700
  | Found hydrogenic basis function :  3 d   6.000
  | Found hydrogenic basis function :  2 s   4.900
  | Found hydrogenic basis function :  4 f   9.800
  | Found hydrogenic basis function :  3 p   5.200
  | Found hydrogenic basis function :  3 s   4.300
  | Found hydrogenic basis function :  5 g  14.400
  | Found hydrogenic basis function :  3 d   6.200
  Species C                   : Missing cutoff potential type.
  Defaulting to exp(1/x)/(1-x)^2 type cutoff potential.
  Species C : No 'logarithmic' tag. Using default grid for free atom:
  | Default logarithmic grid data [bohr] : 0.1000E-03 0.1000E+03 0.1012E+01
  Species C : On-site basis accuracy parameter (for Gram-Schmidt orthonormalisation) not specified.
  Using default value basis_acc =  0.1000000E-03.
  Species C                   : Using default innermost maximum threshold i_radial=  2 for radial functions.
  Species C                   : Default cutoff onset for free atom density etc. : 0.40000000E+01 AA.
  Species C                   : Basic radial grid will be enhanced according to radial_multiplier =   2, to contain    69 grid points.
 
  Finished reading input file 'control.in'. Consistency checks are next.
 
  MPI_IN_PLACE appears to work with this MPI implementation.
  | Keeping use_mpi_in_place .true. (see manual).
  Target number of points in a grid batch is not set. Defaulting to  100
  Method for grid partitioning is not set. Defaulting to parallel hash+maxmin partitioning.
  Batch size limit is not set. Defaulting to    200
  By default, will store active basis functions for each batch.
  If in need of memory, prune_basis_once .false. can be used to disable this option.
  communication_type for Hartree potential was not specified.
  Defaulting to calc_hartree .
  Pulay mixer: Number of initial linear mixing iterations not set.
  Defaulting to    0 iterations.
  Work space size for distributed Hartree potential not set.
  Defaulting to   0.200000E+03 MB.
  Algorithm-dependent basis array size parameters:
  | n_max_pulay                         :        5
  Presetting      1001 iterations before the initial mixing cycle
  is restarted anyway using the sc_init_iter criterion / keyword.
  Presetting a factor      1.000 between actual scf density residual
  and density convergence criterion sc_accuracy_rho below which sc_init_iter
  takes no effect.
  Calculation of forces was not defined in control.in. No forces will be calculated.
  Geometry relaxation not requested: no relaxation will be performed.
  No accuracy limit for integral partition fn. given. Defaulting to  0.1000E-14.
  No threshold value for u(r) in integrations given. Defaulting to  0.1000E-05.
  No accuracy for occupation numbers given. Defaulting to  0.1000E-12.
  No threshold value for occupation numbers given. Defaulting to  0.0000E+00.
  No accuracy for fermi level given. Defaulting to  0.1000E-19.
  Maximum # of iterations to find E_F not set. Defaulting to  200.
  Will not use alltoall communication since running on < 1024 CPUs.
  partition_type (choice of integration weights) for integrals was not specified.
  | Using a version of the partition function of Stratmann and coworkers ('stratmann_sparse').
  | At each grid point, the set of atoms used to build the partition table is smoothly restricted to
  | only those atoms whose free-atom density would be non-zero at that grid point.
  Partitioning for Hartree potential was not defined. Using partition_type for integrals.
  | Adjusted default value of keyword multip_moments_threshold to:       0.10000000E-11
  | This value may affect high angular momentum components of the Hartree potential in periodic systems.
  No q(lm)/r^(l+1) cutoff set for long-range Hartree potential.
  | Using default value of  0.100000E-09 .
  | Verify using the multipole_threshold keyword.
  Defaulting to new monopole extrapolation.
  Density update method: automatic selection selected.
 * Warning: use_local_index and/or load_balancing needs packed_matrix_format = index
 * Changing the default setting to packed_matrix_format = index
------------------------------------------------------------


------------------------------------------------------------
          Reading geometry description geometry.in.
------------------------------------------------------------
  Input structure read successfully.
  The structure contains       32 atoms,  and a total of        122.000 electrons.

  Input geometry:
  | No unit cell requested.
  | Atomic structure:
  |       Atom                x [A]            y [A]            z [A]
  |    1: Species C            15.68529100       30.01451100       45.88639100
  |    2: Species C            14.51181600       30.61855400       46.26360500
  |    3: Species C            15.79432600       29.41515900       44.65812100
  |    4: Species H            16.53473500       29.98941100       46.56872200
  |    5: Species C            13.45701400       30.61034400       45.41440800
  |    6: Species H            14.42645600       31.08032500       47.24789400
  |    7: Species C            14.73048700       29.39756600       43.78290800
  |    8: Species H            16.72045500       28.90952200       44.37994800
  |    9: Species H            12.52239000       31.09522100       45.69927000
  |   10: Species C            13.53954200       30.00160900       44.16569800
  |   11: Species C            14.87506300       28.75129800       42.45615400
  |   12: Species H            12.68889300       30.00946800       43.48559600
  |   13: Species C            14.07387100       27.65580900       42.03062600
  |   14: Species C            15.79131400       29.27910300       41.55864300
  |   15: Species C            13.12268200       26.95676100       42.93185300
  |   16: Species C            14.27386800       27.17374700       40.75404200
  |   17: Species C            15.97444300       28.78062000       40.31364900
  |   18: Species H            16.40359300       30.12206600       41.88122700
  |   19: Species C            11.88776200       26.50871300       42.46172800
  |   20: Species C            13.45520600       26.63421300       44.24374200
  |   21: Species H            13.68460000       26.30896800       40.43852000
  |   22: Species C            15.14614300       27.71797300       39.85653200
  |   23: Species H            16.71798600       29.22643900       39.65417400
  |   24: Species C            11.02030600       25.78503400       43.25889600
  |   25: Species H            11.58469400       26.74622500       41.44157600
  |   26: Species C            12.57510000       25.92930000       45.07249900
  |   27: Species H            14.42410700       26.92825900       44.64325500
  |   28: Species H            15.26680400       27.29396900       38.86276600
  |   29: Species H            10.06839300       25.44360200       42.85752500
  |   30: Species C            11.37391400       25.48946300       44.59865800
  |   31: Species H            12.88648100       25.70211000       46.09246500
  |   32: Species H            10.69410600       24.91380300       45.22710100
  |

  | The smallest distance between any two atoms is         1.08715654 AA.
  |
  | The first atom of this pair is atom number                     22 .
  | The second atom of this pair is atom number                    28 .

  Number of empty states per atom not set in control.in - providing a guess from actual geometry.
  | Total number of empty states used during s.c.f. cycle:       75
  If you use a very high smearing, use empty_states (per atom!) in control.in to increase this value.

  Structure-dependent array size parameters: 
  | Maximum number of distinct radial functions  :       18
  | Maximum number of basis functions            :      912
  | Number of Kohn-Sham states (occupied + empty):      136
------------------------------------------------------------

------------------------------------------------------------
          Preparing all fixed parts of the calculation.
------------------------------------------------------------
  Determining machine precision:
    2.225073858507201E-308
  Setting up grids for atomic and cluster calculations.

  Creating wave function, potential, and density for free atoms.

  Species: H

  List of occupied orbitals and eigenvalues:
    n    l              occ      energy [Ha]    energy [eV]
    1    0           1.0000        -0.238386        -6.4868


  Species: C

  List of occupied orbitals and eigenvalues:
    n    l              occ      energy [Ha]    energy [eV]
    1    0           2.0000       -10.049212      -273.4530
    2    0           2.0000        -0.504761       -13.7352
    2    1           2.0000        -0.193631        -5.2690

  Creating fixed part of basis set: Ionic, confined, hydrogenic.
 
  H                    hydrogenic:
 
  List of hydrogenic basis orbitals: 
    n    l      effective z      eigenvalue [eV]  inner max. [A]     outer max. [A]     outer radius [A]   
    2    0         2.100000       -14.9965           0.193243           1.317208           5.373006
    2    1         3.500000       -41.6672           0.602369           0.602369           4.056063
    1    0         0.850000        -9.8292           0.624871           0.624871           5.373006
    2    1         3.700000       -46.5653           0.573622           0.573622           3.910002
    2    0         1.200000        -4.5995           0.334980           2.228188           5.505995
    3    2         7.000000       -74.0753           0.680699           0.680699           3.769201
 
 
  C                    hydrogenic:
 
  List of hydrogenic basis orbitals: 
    n    l      effective z      eigenvalue [eV]  inner max. [A]     outer max. [A]     outer radius [A]   
    2    1         1.700000        -9.8152           1.245706           1.245706           5.401630
    3    2         6.000000       -54.4226           0.792453           0.792453           4.178599
    2    0         4.900000       -81.6681           0.082559           0.562749           3.353238
    4    3         9.800000       -81.6681           0.863254           0.863254           4.028125
    3    1         5.200000       -40.8774           0.305389           1.215618           4.898362
    3    0         4.300000       -27.9508           0.091041           1.610311           5.401630
    5    4        14.400000      -112.8510           0.917666           0.917666           3.883070
    3    2         6.200000       -58.1113           0.763917           0.763917           4.077671
 

  Adding cutoff potential to free-atom effective potential.
  Creating atomic-like basis functions for current effective potential.

  Species H                   :

  List of atomic basis orbitals and eigenvalues:
    n    l      energy [Ha]    energy [eV]    outer radius [A]
    1    0        -0.238386        -6.4868       5.373006


  Species C                   :

  List of atomic basis orbitals and eigenvalues:
    n    l      energy [Ha]    energy [eV]    outer radius [A]
    1    0       -10.049212      -273.4530       1.934409
    2    0        -0.504761       -13.7352       5.271162
    2    1        -0.193631        -5.2690       5.401630

  Assembling full basis from fixed parts.
  | Species H :   atomic orbital   1 s accepted.
  | Species H :    hydro orbital   2 s accepted.
  | Species H :    hydro orbital   1 s accepted.
  | Species H :    hydro orbital   2 s accepted.
  | Species H :    hydro orbital   2 p accepted.
  | Species H :    hydro orbital   2 p accepted.
  | Species H :    hydro orbital   3 d accepted.
  | Species C :   atomic orbital   1 s accepted.
  | Species C :    hydro orbital   2 s accepted.
  | Species C :   atomic orbital   2 s accepted.
  | Species C :    hydro orbital   3 s accepted.
  | Species C :    hydro orbital   3 p accepted.
  | Species C :   atomic orbital   2 p accepted.
  | Species C :    hydro orbital   2 p accepted.
  | Species C :    hydro orbital   3 d accepted.
  | Species C :    hydro orbital   3 d accepted.
  | Species C :    hydro orbital   4 f accepted.
  | Species C :    hydro orbital   5 g accepted.
 
  Basis size parameters after reduction:
  | Total number of radial functions:       18
  | Total number of basis functions :      912
 
  Per-task memory consumption for arrays in subroutine allocate_ext:
  |           4.435256MB.
  Testing on-site integration grid accuracy.
  |  Species  Function  <phi|h_atom|phi> (log., in eV)  <phi|h_atom|phi> (rad., in eV)
           1        1                 -6.4870767962                 -6.4871688290
           1        2                 13.5032046589                 13.5028982997
           1        3                 32.8195184817                 32.8119941656
           1        4                 33.8513856511                 33.7670005767 ***
           1        5                 28.8544614965                 28.8544615203
           1        6                 59.6326952547                 59.6327656460
           1        7                 60.2719308513                 60.2719305949
           2        8               -273.4529726040               -273.4529710464
           2        9                -10.7721037319                -10.7721022101
           2       10                 17.6044132601                 17.6044162063
           2       11                 53.7706460658                 53.7706913770
           2       12                 15.0973290362                 15.0973256030
           2       13                  3.8545134692                  3.8545724687
           2       14                 12.1156992592                 12.1182024431
           2       15                 29.4352039302                 29.4352041816
           2       16                 54.8741144708                 54.8740268729
           2       17                 59.3556032049                 59.3556031382
           2       18                 93.4551837154                 93.4551838009
 * Note: Onsite integrals marked "***" above are less accurate than
 * onsite_accuracy_threshold =    0.03000 eV. Usually, this is harmless.
 * When in doubt, tighten the "radial" and/or "radial_multiplier" flags to check.

  Preparing densities etc. for the partition functions (integrals / Hartree potential).

  Preparations completed.
  max(cpu_time)          :      0.190 s.
  Wall clock time (cpu1) :      0.179 s.
------------------------------------------------------------

------------------------------------------------------------
          Begin self-consistency loop: Initialization.

          Date     :  20210620, Time     :  174955.008
------------------------------------------------------------

  Initializing index lists of integration centers etc. from given atomic structure:
  | Number of centers in hartree potential         :        32
  | Number of centers in hartree multipole         :        32
  | Number of centers in electron density summation:        32
  | Number of centers in basis integrals           :        32
  | Number of centers in integrals                 :        32
  | Number of centers in hamiltonian               :        32
  * Using 56 tasks for Scalapack Eigenvalue solver.
  Detailed listing of tasks and assigned k-points:
  (for non-periodic systems, the "k-point" denotes an internal label only)
   Task     0 k-point     1 on d001
   Task     1 k-point     1 on d001
   Task     2 k-point     1 on d001
   Task     3 k-point     1 on d001
   Task     4 k-point     1 on d001
   Task     5 k-point     1 on d001
   Task     6 k-point     1 on d001
   Task     7 k-point     1 on d001
   Task     8 k-point     1 on d001
   Task     9 k-point     1 on d001
   Task    10 k-point     1 on d001
   Task    11 k-point     1 on d001
   Task    12 k-point     1 on d001
   Task    13 k-point     1 on d001
   Task    14 k-point     1 on d001
   Task    15 k-point     1 on d001
   Task    16 k-point     1 on d001
   Task    17 k-point     1 on d001
   Task    18 k-point     1 on d001
   Task    19 k-point     1 on d001
   Task    20 k-point     1 on d001
   Task    21 k-point     1 on d001
   Task    22 k-point     1 on d001
   Task    23 k-point     1 on d001
   Task    24 k-point     1 on d001
   Task    25 k-point     1 on d001
   Task    26 k-point     1 on d001
   Task    27 k-point     1 on d001
   Task    28 k-point     1 on d001
   Task    29 k-point     1 on d001
   Task    30 k-point     1 on d001
   Task    31 k-point     1 on d001
   Task    32 k-point     1 on d001
   Task    33 k-point     1 on d001
   Task    34 k-point     1 on d001
   Task    35 k-point     1 on d001
   Task    36 k-point     1 on d001
   Task    37 k-point     1 on d001
   Task    38 k-point     1 on d001
   Task    39 k-point     1 on d001
   Task    40 k-point     1 on d001
   Task    41 k-point     1 on d001
   Task    42 k-point     1 on d001
   Task    43 k-point     1 on d001
   Task    44 k-point     1 on d001
   Task    45 k-point     1 on d001
   Task    46 k-point     1 on d001
   Task    47 k-point     1 on d001
   Task    48 k-point     1 on d001
   Task    49 k-point     1 on d001
   Task    50 k-point     1 on d001
   Task    51 k-point     1 on d001
   Task    52 k-point     1 on d001
   Task    53 k-point     1 on d001
   Task    54 k-point     1 on d001
   Task    55 k-point     1 on d001
  Tasks:    56 split into      8 X      7 BLACS grid
  Calculating block size based on n_basis =          912 max_nprow =            8 max_npcol =            7
  ScaLAPACK block size set to:           16
  Allocating        0.147 MB for ovlp
  Allocating        0.147 MB for ham
  Allocating        0.147 MB for eigenvec
  Required Scalapack workspace - INTEGER:            1 REAL:             1
  Partitioning the integration grid into batches with parallel hashing+maxmin method.
  | Number of batches:     4652
  | Maximal batch size:     200
  | Minimal batch size:       3
  | Average batch size:     113.436
  | Standard deviation of batch sizes:      34.598

  Integration load balanced across     56 MPI tasks.
  Work distribution over tasks is as follows:
  Task      0 has       9499 integration points.
  Task      1 has       9428 integration points.
  Task      2 has       9377 integration points.
  Task      3 has       9654 integration points.
  Task      4 has       9336 integration points.
  Task      5 has       9394 integration points.
  Task      6 has       9345 integration points.
  Task      7 has       9489 integration points.
  Task      8 has       9451 integration points.
  Task      9 has       9368 integration points.
  Task     10 has       9486 integration points.
  Task     11 has       9330 integration points.
  Task     12 has       9433 integration points.
  Task     13 has       9381 integration points.
  Task     14 has       9515 integration points.
  Task     15 has       9565 integration points.
  Task     16 has       9335 integration points.
  Task     17 has       9530 integration points.
  Task     18 has       9350 integration points.
  Task     19 has       9412 integration points.
  Task     20 has       9333 integration points.
  Task     21 has       9546 integration points.
  Task     22 has       9443 integration points.
  Task     23 has       9383 integration points.
  Task     24 has       9426 integration points.
  Task     25 has       9355 integration points.
  Task     26 has       9413 integration points.
  Task     27 has       9303 integration points.
  Task     28 has       9510 integration points.
  Task     29 has       9544 integration points.
  Task     30 has       9359 integration points.
  Task     31 has       9465 integration points.
  Task     32 has       9353 integration points.
  Task     33 has       9391 integration points.
  Task     34 has       9376 integration points.
  Task     35 has       9543 integration points.
  Task     36 has       9392 integration points.
  Task     37 has       9376 integration points.
  Task     38 has       9474 integration points.
  Task     39 has       9432 integration points.
  Task     40 has       9394 integration points.
  Task     41 has       9360 integration points.
  Task     42 has       9469 integration points.
  Task     43 has       9476 integration points.
  Task     44 has       9409 integration points.
  Task     45 has       9440 integration points.
  Task     46 has       9415 integration points.
  Task     47 has       9530 integration points.
  Task     48 has       9306 integration points.
  Task     49 has       9473 integration points.
  Task     50 has       9452 integration points.
  Task     51 has       9358 integration points.
  Task     52 has       9517 integration points.
  Task     53 has       9335 integration points.
  Task     54 has       9469 integration points.
  Task     55 has       9206 integration points.
  Initializing partition tables, free-atom densities, potentials, etc. across the integration grid (initialize_grid_storage).
  | initialize_grid_storage: Actual outermost partition radius vs. multipole_radius_free
  | (-- VB: in principle, multipole_radius_free should be larger, hence this output)
  | Species        1: Confinement radius =              6.000000000000000 AA, multipole_radius_free =              6.071692442739658 AA.
  | Species        1: outer_partition_radius set to              6.071692442739658 AA .
  | Species        2: Confinement radius =              6.000000000000000 AA, multipole_radius_free =              6.029870734432609 AA.
  | Species        2: outer_partition_radius set to              6.029870734432609 AA .
  | The sparse table of interatomic distances needs     12.0360 kbyte instead of     8.1920 kbyte of memory.
  | Using the partition_type stratmann_smoother will reduce your memory usage.
  | Net number of integration points:   527704
  | of which are non-zero points    :   423136
  Renormalizing the initial density to the exact electron count on the 3D integration grid.
  | Initial density: Formal number of electrons (from input files) :     122.0000000000
  | Integrated number of electrons on 3D grid     :     122.0000171889
  | Charge integration error                      :       0.0000171889
  | Normalization factor for density and gradient :       0.9999998591
  Obtaining max. number of non-zero basis functions in each batch (get_n_compute_maxes).
  | Maximal number of non-zero basis functions:      853
  Selecting the method for density update.
  Loop over occupied states selected for charge density update.
  Hamiltonian matrix size:
  | Size of matrix non-packed:                416328
  | Size of matrix packed:          413732
  Allocating        0.992 MB for KS_eigenvector
  use_local_index: Max. local matrix size =       402204
  Task:     0 matrix size:     154230
  Task:     1 matrix size:     186796
  Task:     2 matrix size:     272752
  Task:     3 matrix size:     107416
  Task:     4 matrix size:     170229
  Task:     5 matrix size:     283587
  Task:     6 matrix size:     332687
  Task:     7 matrix size:     282384
  Task:     8 matrix size:     217967
  Task:     9 matrix size:     348485
  Task:    10 matrix size:     378197
  Task:    11 matrix size:     372404
  Task:    12 matrix size:     392500
  Task:    13 matrix size:     402204
  Task:    14 matrix size:     113526
  Task:    15 matrix size:     148240
  Task:    16 matrix size:      98346
  Task:    17 matrix size:     375332
  Task:    18 matrix size:     330467
  Task:    19 matrix size:     373940
  Task:    20 matrix size:     318409
  Task:    21 matrix size:      92665
  Task:    22 matrix size:     190653
  Task:    23 matrix size:     128271
  Task:    24 matrix size:     337706
  Task:    25 matrix size:     306141
  Task:    26 matrix size:     256998
  Task:    27 matrix size:     228535
  Task:    28 matrix size:     151525
  Task:    29 matrix size:      99681
  Task:    30 matrix size:      85905
  Task:    31 matrix size:     266774
  Task:    32 matrix size:     234067
  Task:    33 matrix size:     355115
  Task:    34 matrix size:     268561
  Task:    35 matrix size:     356848
  Task:    36 matrix size:     317793
  Task:    37 matrix size:     258562
  Task:    38 matrix size:     395131
  Task:    39 matrix size:     376666
  Task:    40 matrix size:     337549
  Task:    41 matrix size:     297566
  Task:    42 matrix size:     383278
  Task:    43 matrix size:     318629
  Task:    44 matrix size:     236994
  Task:    45 matrix size:     236244
  Task:    46 matrix size:     167317
  Task:    47 matrix size:     257387
  Task:    48 matrix size:     153181
  Task:    49 matrix size:     315265
  Task:    50 matrix size:     281364
  Task:    51 matrix size:     234758
  Task:    52 matrix size:     200661
  Task:    53 matrix size:     133903
  Task:    54 matrix size:     114960
  Task:    55 matrix size:      75855
  Integrating Hamiltonian matrix: batch-based integration.
  Time summed over all CPUs for integration: real work       74.367 s, elapsed      150.943 s
  Time get_set_sparse_local_matrix_scalapack:     0.013031 s
  Start compute_balanced_batch_distribution
  Done load balancing, time needed:      0.005 s
  Integrating overlap matrix with loadbalancing
  Time summed over all CPUs for integration: real work       20.320 s, elapsed       23.819 s
  Time get_set_full_local_matrix_scalapack:     0.009512 s

  Updating Kohn-Sham eigenvalues and eigenvectors using ELSI and the ELPA eigensolver.
  Overlap matrix is not singular
  | Lowest and highest eigenvalues :  0.12E+02,  0.96E-04
  Finished singularity check of overlap matrix
  | Time :     0.046 s
  Finished Cholesky decomposition
  | Time :     0.011 s
  Finished transformation to standard eigenproblem
  | Time :     0.006 s
  Starting ELPA eigensolver
  Finished solving standard eigenproblem
  | Time :     0.043 s
  Finished back-transformation of eigenvectors
  | Time :     0.002 s

  Obtaining occupation numbers and chemical potential using ELSI.
  | Chemical potential (Fermi level):    -6.69283807 eV
  Writing Kohn-Sham eigenvalues.

  State    Occupation    Eigenvalue [Ha]    Eigenvalue [eV]
      1       2.00000         -10.179637         -277.00201
      2       2.00000         -10.177628         -276.94734
      3       2.00000         -10.177028         -276.93101
      4       2.00000         -10.176746         -276.92334
      5       2.00000         -10.176656         -276.92089
      6       2.00000         -10.176181         -276.90797
      7       2.00000         -10.173546         -276.83628
      8       2.00000         -10.172300         -276.80238
      9       2.00000         -10.171512         -276.78092
     10       2.00000         -10.171251         -276.77382
     11       2.00000         -10.170936         -276.76526
     12       2.00000         -10.170479         -276.75282
     13       2.00000         -10.169857         -276.73589
     14       2.00000         -10.169295         -276.72058
     15       2.00000         -10.168313         -276.69387
     16       2.00000         -10.165401         -276.61465
     17       2.00000         -10.163548         -276.56422
     18       2.00000         -10.162808         -276.54408
     19       2.00000          -1.015126          -27.62298
     20       2.00000          -1.001800          -27.26037
     21       2.00000          -0.989627          -26.92913
     22       2.00000          -0.920260          -25.04156
     23       2.00000          -0.914841          -24.89408
     24       2.00000          -0.891375          -24.25556
     25       2.00000          -0.883571          -24.04319
     26       2.00000          -0.879254          -23.92572
     27       2.00000          -0.860488          -23.41507
     28       2.00000          -0.782971          -21.30572
     29       2.00000          -0.761027          -20.70859
     30       2.00000          -0.754787          -20.53879
     31       2.00000          -0.747955          -20.35289
     32       2.00000          -0.726853          -19.77869
     33       2.00000          -0.725671          -19.74652
     34       2.00000          -0.676742          -18.41507
     35       2.00000          -0.655661          -17.84145
     36       2.00000          -0.644828          -17.54667
     37       2.00000          -0.635614          -17.29593
     38       2.00000          -0.632076          -17.19966
     39       2.00000          -0.615585          -16.75091
     40       2.00000          -0.596404          -16.22897
     41       2.00000          -0.582270          -15.84437
     42       2.00000          -0.575141          -15.65038
     43       2.00000          -0.572648          -15.58255
     44       2.00000          -0.569176          -15.48807
     45       2.00000          -0.566980          -15.42832
     46       2.00000          -0.562279          -15.30038
     47       2.00000          -0.531280          -14.45687
     48       2.00000          -0.515212          -14.01962
     49       2.00000          -0.513051          -13.96084
     50       2.00000          -0.511934          -13.93043
     51       2.00000          -0.503782          -13.70861
     52       2.00000          -0.497085          -13.52637
     53       2.00000          -0.495507          -13.48342
     54       2.00000          -0.492158          -13.39229
     55       2.00000          -0.487305          -13.26024
     56       2.00000          -0.423773          -11.53145
     57       2.00000          -0.418281          -11.38201
     58       2.00000          -0.407623          -11.09199
     59       2.00000          -0.401364          -10.92167
     60       2.00000          -0.400446          -10.89670
     61       2.00000          -0.377774          -10.27975
     62       0.00000          -0.236546           -6.43674
     63       0.00000          -0.220123           -5.98984
     64       0.00000          -0.213133           -5.79964
     65       0.00000          -0.205670           -5.59657
     66       0.00000          -0.196044           -5.33464
     67       0.00000          -0.185873           -5.05786
     68       0.00000          -0.080297           -2.18501
     69       0.00000          -0.078018           -2.12299
     70       0.00000          -0.069744           -1.89782
     71       0.00000          -0.066823           -1.81835
     72       0.00000          -0.063380           -1.72464
     73       0.00000          -0.054641           -1.48685
     74       0.00000          -0.046399           -1.26258
     75       0.00000          -0.034851           -0.94833
     76       0.00000          -0.029664           -0.80719
     77       0.00000          -0.025693           -0.69914
     78       0.00000          -0.020272           -0.55162
     79       0.00000          -0.015472           -0.42101
     80       0.00000          -0.005858           -0.15940
     81       0.00000          -0.001369           -0.03726
     82       0.00000           0.001057            0.02877
     83       0.00000           0.002332            0.06346
     84       0.00000           0.017077            0.46469
     85       0.00000           0.023304            0.63413
     86       0.00000           0.024318            0.66173
     87       0.00000           0.033023            0.89859
     88       0.00000           0.036604            0.99606
     89       0.00000           0.046292            1.25966
     90       0.00000           0.055731            1.51651
     91       0.00000           0.058006            1.57843
     92       0.00000           0.060816            1.65488
     93       0.00000           0.062682            1.70567
     94       0.00000           0.069238            1.88406
     95       0.00000           0.073437            1.99831
     96       0.00000           0.074343            2.02297
     97       0.00000           0.075696            2.05979
     98       0.00000           0.081224            2.21022
     99       0.00000           0.087522            2.38159
    100       0.00000           0.092241            2.50999
    101       0.00000           0.095548            2.60000
    102       0.00000           0.099704            2.71310
    103       0.00000           0.099954            2.71989
    104       0.00000           0.109018            2.96653
    105       0.00000           0.112905            3.07231
    106       0.00000           0.116270            3.16386
    107       0.00000           0.119458            3.25062
    108       0.00000           0.122325            3.32863
    109       0.00000           0.127544            3.47066
    110       0.00000           0.131840            3.58755
    111       0.00000           0.133162            3.62353
    112       0.00000           0.137003            3.72804
    113       0.00000           0.141863            3.86029
    114       0.00000           0.144929            3.94371
    115       0.00000           0.146586            3.98882
    116       0.00000           0.150600            4.09804
    117       0.00000           0.158076            4.30147
    118       0.00000           0.160157            4.35809
    119       0.00000           0.162430            4.41994
    120       0.00000           0.167134            4.54796
    121       0.00000           0.170823            4.64834
    122       0.00000           0.178666            4.86174
    123       0.00000           0.181684            4.94388
    124       0.00000           0.182370            4.96253
    125       0.00000           0.190025            5.17084
    126       0.00000           0.192232            5.23089
    127       0.00000           0.198513            5.40183
    128       0.00000           0.204887            5.57525
    129       0.00000           0.217576            5.92054
    130       0.00000           0.221662            6.03173
    131       0.00000           0.225266            6.12979
    132       0.00000           0.225632            6.13975
    133       0.00000           0.228569            6.21968
    134       0.00000           0.234173            6.37217
    135       0.00000           0.237551            6.46408
    136       0.00000           0.242584            6.60106

  Highest occupied state (VBM) at    -10.27974980 eV
  | Occupation number:      2.00000000

  Lowest unoccupied state (CBM) at    -6.43674310 eV
  | Occupation number:      0.00000000

  Overall HOMO-LUMO gap:      3.84300670 eV.
  Calculating total energy contributions from superposition of free atom densities.

  Total energy components:
  | Sum of eigenvalues            :        -421.62140900 Ha      -11472.90227375 eV
  | XC energy correction          :        -100.15146356 Ha       -2725.25998329 eV
  | XC potential correction       :         128.64151355 Ha        3500.51368787 eV
  | Free-atom electrostatic energy:        -301.84942424 Ha       -8213.74074403 eV
  | Hartree energy correction     :           0.00000000 Ha           0.00000000 eV
  | Entropy correction            :           0.00000000 Ha           0.00000000 eV
  | ---------------------------
  | Total energy                  :        -694.98078325 Ha      -18911.38931321 eV
  | Total energy, T -> 0          :        -694.98078325 Ha      -18911.38931321 eV  <-- do not rely on this value for anything but (periodic) metals
  | Electronic free energy        :        -694.98078325 Ha      -18911.38931321 eV

  Derived energy quantities:
  | Kinetic energy                :         687.60741410 Ha       18710.74973022 eV
  | Electrostatic energy          :       -1282.43673379 Ha      -34896.87906013 eV
  | Energy correction for multipole
  | error in Hartree potential    :           0.00000000 Ha           0.00000000 eV
  | Sum of eigenvalues per atom                           :        -358.52819605 eV
  | Total energy (T->0) per atom                          :        -590.98091604 eV  <-- do not rely on this value for anything but (periodic) metals
  | Electronic free energy per atom                       :        -590.98091604 eV
  Initialize hartree_potential_storage
  Max. number of atoms included in rho_multipole:           32

  End scf initialization - timings             :  max(cpu_time)    wall_clock(cpu1)
  | Time for scf. initialization               :        4.205 s           4.339 s
  | Boundary condition initialization          :        0.001 s           0.004 s
  | Integration                                :        3.160 s           3.190 s
  | Solution of K.-S. eqns.                    :        0.113 s           0.158 s
  | Grid partitioning                          :        0.433 s           0.438 s
  | Preloading free-atom quantities on grid    :        0.023 s           0.026 s
  | Free-atom superposition energy             :        0.067 s           0.090 s
  | Total energy evaluation                    :        0.001 s           0.003 s

  Partial memory accounting:
  | Current value for overall tracked memory usage on task 0  :           2.052 MB
  | Peak value for overall tracked memory usage on task 0     :          21.411 MB after allocating zora_vector2
  | Largest tracked array allocation on task 0 so far         :           5.821 MB  when allocating hamiltonian_shell
  Note:  These values currently only include a subset of arrays which are explicitly tracked.
  The "true" memory usage will be greater.
------------------------------------------------------------

------------------------------------------------------------
          Begin self-consistency iteration #    1

  Date     :  20210620, Time     :  174959.350
------------------------------------------------------------
  Evaluating new KS density.
  Integration grid: deviation in total charge (<rho> - N_e) =   4.263256E-14
  Pulay mixing of updated and previous charge densities.

  Evaluating partitioned Hartree potential by multipole expansion.
  | Analytical far-field extrapolation by fixed multipoles:
  | Hartree multipole sum: apparent total charge =   0.107706E-04
  Summing up the Hartree potential with load balancing.
  Time summed over all CPUs for potential: real work       12.010 s, elapsed       20.306 s
  | RMS charge density error from multipole expansion :   0.993521E-02

  Start compute_balanced_batch_distribution
  Done load balancing, time needed:      0.004 s
  Integrating Hamiltonian matrix: batch-based integration with load balancing
  Time summed over all CPUs for integration: real work       81.600 s, elapsed       90.664 s
  Time get_set_full_local_matrix_scalapack:     0.010245 s
  Start compute_balanced_batch_distribution
  Done load balancing, time needed:      0.004 s

  Updating Kohn-Sham eigenvalues and eigenvectors using ELSI and the ELPA eigensolver.
  Finished transformation to standard eigenproblem
  | Time :     0.008 s
  Starting ELPA eigensolver
  Finished solving standard eigenproblem
  | Time :     0.042 s
  Finished back-transformation of eigenvectors
  | Time :     0.002 s

  Obtaining occupation numbers and chemical potential using ELSI.
  | Chemical potential (Fermi level):    -4.20545297 eV
  Writing Kohn-Sham eigenvalues.

  State    Occupation    Eigenvalue [Ha]    Eigenvalue [eV]
      1       2.00000          -9.977235         -271.49437
      2       2.00000          -9.976424         -271.47232
      3       2.00000          -9.967581         -271.23168
      4       2.00000          -9.964998         -271.16138
      5       2.00000          -9.947438         -270.68356
      6       2.00000          -9.944069         -270.59188
      7       2.00000          -9.943324         -270.57161
      8       2.00000          -9.941399         -270.51922
      9       2.00000          -9.941099         -270.51106
     10       2.00000          -9.939489         -270.46725
     11       2.00000          -9.939406         -270.46499
     12       2.00000          -9.939326         -270.46282
     13       2.00000          -9.937763         -270.42029
     14       2.00000          -9.937090         -270.40198
     15       2.00000          -9.936378         -270.38261
     16       2.00000          -9.934389         -270.32847
     17       2.00000          -9.933941         -270.31629
     18       2.00000          -9.932666         -270.28158
     19       2.00000          -0.856090          -23.29539
     20       2.00000          -0.834834          -22.71698
     21       2.00000          -0.823951          -22.42086
     22       2.00000          -0.764911          -20.81429
     23       2.00000          -0.760850          -20.70377
     24       2.00000          -0.731070          -19.89343
     25       2.00000          -0.726838          -19.77826
     26       2.00000          -0.719552          -19.58000
     27       2.00000          -0.703979          -19.15624
     28       2.00000          -0.631679          -17.18887
     29       2.00000          -0.616839          -16.78504
     30       2.00000          -0.604562          -16.45096
     31       2.00000          -0.601007          -16.35422
     32       2.00000          -0.582307          -15.84538
     33       2.00000          -0.576032          -15.67462
     34       2.00000          -0.540379          -14.70446
     35       2.00000          -0.520817          -14.17214
     36       2.00000          -0.500886          -13.62981
     37       2.00000          -0.481573          -13.10427
     38       2.00000          -0.476193          -12.95788
     39       2.00000          -0.466548          -12.69543
     40       2.00000          -0.460456          -12.52964
     41       2.00000          -0.449850          -12.24105
     42       2.00000          -0.445773          -12.13011
     43       2.00000          -0.433422          -11.79401
     44       2.00000          -0.430554          -11.71597
     45       2.00000          -0.428369          -11.65651
     46       2.00000          -0.424677          -11.55604
     47       2.00000          -0.393627          -10.71114
     48       2.00000          -0.381356          -10.37722
     49       2.00000          -0.377327          -10.26760
     50       2.00000          -0.373449          -10.16207
     51       2.00000          -0.366548           -9.97428
     52       2.00000          -0.359191           -9.77409
     53       2.00000          -0.356024           -9.68790
     54       2.00000          -0.350605           -9.54044
     55       2.00000          -0.348525           -9.48385
     56       2.00000          -0.292311           -7.95419
     57       2.00000          -0.284440           -7.74002
     58       2.00000          -0.270958           -7.37314
     59       2.00000          -0.267087           -7.26781
     60       2.00000          -0.264533           -7.19832
     61       2.00000          -0.244818           -6.66183
     62       0.00000          -0.108538           -2.95347
     63       0.00000          -0.090521           -2.46319
     64       0.00000          -0.083100           -2.26126
     65       0.00000          -0.073689           -2.00519
     66       0.00000          -0.066226           -1.80209
     67       0.00000          -0.057344           -1.56041
     68       0.00000          -0.027179           -0.73956
     69       0.00000          -0.019019           -0.51755
     70       0.00000          -0.016194           -0.44065
     71       0.00000          -0.004530           -0.12326
     72       0.00000           0.003844            0.10461
     73       0.00000           0.007140            0.19428
     74       0.00000           0.011603            0.31573
     75       0.00000           0.021898            0.59589
     76       0.00000           0.028733            0.78187
     77       0.00000           0.030832            0.83897
     78       0.00000           0.040557            1.10361
     79       0.00000           0.043252            1.17694
     80       0.00000           0.045718            1.24404
     81       0.00000           0.055549            1.51158
     82       0.00000           0.062652            1.70485
     83       0.00000           0.068281            1.85801
     84       0.00000           0.074839            2.03647
     85       0.00000           0.079958            2.17577
     86       0.00000           0.090301            2.45722
     87       0.00000           0.096509            2.62614
     88       0.00000           0.107049            2.91296
     89       0.00000           0.115600            3.14563
     90       0.00000           0.125688            3.42014
     91       0.00000           0.127630            3.47300
     92       0.00000           0.129920            3.53530
     93       0.00000           0.131678            3.58315
     94       0.00000           0.134138            3.65007
     95       0.00000           0.136521            3.71493
     96       0.00000           0.144676            3.93682
     97       0.00000           0.148178            4.03213
     98       0.00000           0.149342            4.06380
     99       0.00000           0.152857            4.15945
    100       0.00000           0.158870            4.32307
    101       0.00000           0.165669            4.50809
    102       0.00000           0.171937            4.67864
    103       0.00000           0.177958            4.84249
    104       0.00000           0.179100            4.87355
    105       0.00000           0.183250            4.98648
    106       0.00000           0.188822            5.13811
    107       0.00000           0.189983            5.16971
    108       0.00000           0.192917            5.24955
    109       0.00000           0.200355            5.45193
    110       0.00000           0.203185            5.52894
    111       0.00000           0.204158            5.55541
    112       0.00000           0.206833            5.62821
    113       0.00000           0.211146            5.74559
    114       0.00000           0.215228            5.85666
    115       0.00000           0.216722            5.89731
    116       0.00000           0.221273            6.02114
    117       0.00000           0.221998            6.04086
    118       0.00000           0.231488            6.29911
    119       0.00000           0.232914            6.33792
    120       0.00000           0.243927            6.63760
    121       0.00000           0.249720            6.79522
    122       0.00000           0.250702            6.82196
    123       0.00000           0.255751            6.95933
    124       0.00000           0.256789            6.98759
    125       0.00000           0.265436            7.22288
    126       0.00000           0.271920            7.39932
    127       0.00000           0.274669            7.47414
    128       0.00000           0.279282            7.59966
    129       0.00000           0.288429            7.84857
    130       0.00000           0.289220            7.87007
    131       0.00000           0.296115            8.05771
    132       0.00000           0.299543            8.15097
    133       0.00000           0.305999            8.32665
    134       0.00000           0.315203            8.57712
    135       0.00000           0.318939            8.67877
    136       0.00000           0.328535            8.93990

  Highest occupied state (VBM) at     -6.66182566 eV
  | Occupation number:      2.00000000

  Lowest unoccupied state (CBM) at    -2.95346628 eV
  | Occupation number:      0.00000000

  Overall HOMO-LUMO gap:      3.70835938 eV.

  Total energy components:
  | Sum of eigenvalues            :        -401.11762418 Ha      -10914.96590122 eV
  | XC energy correction          :        -101.59589330 Ha       -2764.56491624 eV
  | XC potential correction       :         130.51666603 Ha        3551.53918312 eV
  | Free-atom electrostatic energy:        -301.84942424 Ha       -8213.74074403 eV
  | Hartree energy correction     :         -20.22556338 Ha        -550.36558181 eV
  | Entropy correction            :           0.00000000 Ha           0.00000000 eV
  | ---------------------------
  | Total energy                  :        -694.27183906 Ha      -18892.09796019 eV
  | Total energy, T -> 0          :        -694.27183906 Ha      -18892.09796019 eV  <-- do not rely on this value for anything but (periodic) metals
  | Electronic free energy        :        -694.27183906 Ha      -18892.09796019 eV

  Derived energy quantities:
  | Kinetic energy                :         694.25784927 Ha       18891.71727869 eV
  | Electrostatic energy          :       -1286.93379503 Ha      -35019.25032263 eV
  | Energy correction for multipole
  | error in Hartree potential    :          -0.04372217 Ha          -1.18974087 eV
  | Sum of eigenvalues per atom                           :        -341.09268441 eV
  | Total energy (T->0) per atom                          :        -590.37806126 eV  <-- do not rely on this value for anything but (periodic) metals
  | Electronic free energy per atom                       :        -590.37806126 eV

  Self-consistency convergence accuracy:
  | Change of charge density      :  0.8857E+00
  | Change of sum of eigenvalues  :  0.5579E+03 eV
  | Change of total energy        :  0.1929E+02 eV

  End self-consistency iteration #     1       :  max(cpu_time)    wall_clock(cpu1)
  | Time for this iteration                    :        2.699 s           2.707 s
  | Charge density update                      :        0.618 s           0.620 s
  | Density mixing                             :        0.002 s           0.003 s
  | Hartree multipole update                   :        0.007 s           0.008 s
  | Hartree multipole summation                :        0.369 s           0.371 s
  | Integration                                :        1.623 s           1.623 s
  | Solution of K.-S. eqns.                    :        0.075 s           0.076 s
  | Total energy evaluation                    :        0.003 s           0.000 s

  Partial memory accounting:
  | Current value for overall tracked memory usage on task 0  :           2.052 MB
  | Peak value for overall tracked memory usage on task 0     :          21.875 MB after allocating zora_vector2
  | Largest tracked array allocation on task 0 so far         :           5.821 MB  when allocating hamiltonian_shell
  Note:  These values currently only include a subset of arrays which are explicitly tracked.
  The "true" memory usage will be greater.
------------------------------------------------------------

------------------------------------------------------------
          Begin self-consistency iteration #    2

  Date     :  20210620, Time     :  175002.059
------------------------------------------------------------
  Evaluating new KS density.
  Integration grid: deviation in total charge (<rho> - N_e) =   9.947598E-14
  Pulay mixing of updated and previous charge densities.

  Evaluating partitioned Hartree potential by multipole expansion.
  | Analytical far-field extrapolation by fixed multipoles:
  | Hartree multipole sum: apparent total charge =   0.113904E-04
  Summing up the Hartree potential with load balancing.
  Time summed over all CPUs for potential: real work       12.099 s, elapsed       14.124 s
  | RMS charge density error from multipole expansion :   0.171677E-01

  Integrating Hamiltonian matrix: batch-based integration with load balancing
  Time summed over all CPUs for integration: real work       82.715 s, elapsed       85.648 s
  Time get_set_full_local_matrix_scalapack:     0.011672 s

  Updating Kohn-Sham eigenvalues and eigenvectors using ELSI and the ELPA eigensolver.
  Finished transformation to standard eigenproblem
  | Time :     0.005 s
  Starting ELPA eigensolver
  Finished solving standard eigenproblem
  | Time :     0.040 s
  Finished back-transformation of eigenvectors
  | Time :     0.002 s

  Obtaining occupation numbers and chemical potential using ELSI.
  | Chemical potential (Fermi level):    -3.49921498 eV
  Highest occupied state (VBM) at     -5.65236358 eV
  | Occupation number:      2.00000000

  Lowest unoccupied state (CBM) at    -1.91335136 eV
  | Occupation number:      0.00000000

  Overall HOMO-LUMO gap:      3.73901222 eV.

  Checking to see if s.c.f. parameters should be adjusted.

  Total energy components:
  | Sum of eigenvalues            :        -395.33472783 Ha      -10757.60528507 eV
  | XC energy correction          :        -102.17286811 Ha       -2780.26519960 eV
  | XC potential correction       :         131.25776142 Ha        3571.70541467 eV
  | Free-atom electrostatic energy:        -301.84942424 Ha       -8213.74074403 eV
  | Hartree energy correction     :         -26.08792735 Ha        -709.88862189 eV
  | Entropy correction            :           0.00000000 Ha           0.00000000 eV
  | ---------------------------
  | Total energy                  :        -694.18718610 Ha      -18889.79443592 eV
  | Total energy, T -> 0          :        -694.18718610 Ha      -18889.79443592 eV  <-- do not rely on this value for anything but (periodic) metals
  | Electronic free energy        :        -694.18718610 Ha      -18889.79443592 eV

  Derived energy quantities:
  | Kinetic energy                :         694.29553585 Ha       18892.74278262 eV
  | Electrostatic energy          :       -1286.30985384 Ha      -35002.27201895 eV
  | Energy correction for multipole
  | error in Hartree potential    :          -0.06849916 Ha          -1.86395692 eV
  | Sum of eigenvalues per atom                           :        -336.17516516 eV
  | Total energy (T->0) per atom                          :        -590.30607612 eV  <-- do not rely on this value for anything but (periodic) metals
  | Electronic free energy per atom                       :        -590.30607612 eV

  Self-consistency convergence accuracy:
  | Change of charge density      :  0.4298E+00
  | Change of sum of eigenvalues  :  0.1574E+03 eV
  | Change of total energy        :  0.2304E+01 eV

  End self-consistency iteration #     2       :  max(cpu_time)    wall_clock(cpu1)
  | Time for this iteration                    :        2.486 s           2.488 s
  | Charge density update                      :        0.617 s           0.615 s
  | Density mixing                             :        0.003 s           0.005 s
  | Hartree multipole update                   :        0.007 s           0.007 s
  | Hartree multipole summation                :        0.254 s           0.254 s
  | Integration                                :        1.532 s           1.532 s
  | Solution of K.-S. eqns.                    :        0.071 s           0.072 s
  | Total energy evaluation                    :        0.000 s           0.001 s

  Partial memory accounting:
  | Current value for overall tracked memory usage on task 0  :           2.053 MB
  | Peak value for overall tracked memory usage on task 0     :          21.891 MB after allocating zora_vector2
  | Largest tracked array allocation on task 0 so far         :           5.821 MB  when allocating hamiltonian_shell
  Note:  These values currently only include a subset of arrays which are explicitly tracked.
  The "true" memory usage will be greater.
------------------------------------------------------------

------------------------------------------------------------
          Begin self-consistency iteration #    3

  Date     :  20210620, Time     :  175004.550
------------------------------------------------------------
  Evaluating new KS density.
  Integration grid: deviation in total charge (<rho> - N_e) =   1.705303E-13
  Pulay mixing of updated and previous charge densities.

  Evaluating partitioned Hartree potential by multipole expansion.
  | Analytical far-field extrapolation by fixed multipoles:
  | Hartree multipole sum: apparent total charge =   0.124032E-04
  Summing up the Hartree potential with load balancing.
  Time summed over all CPUs for potential: real work       12.101 s, elapsed       14.118 s
  | RMS charge density error from multipole expansion :   0.208834E-01

  Integrating Hamiltonian matrix: batch-based integration with load balancing
  Time summed over all CPUs for integration: real work       82.902 s, elapsed       85.707 s
  Time get_set_full_local_matrix_scalapack:     0.011691 s

  Updating Kohn-Sham eigenvalues and eigenvectors using ELSI and the ELPA eigensolver.
  Finished transformation to standard eigenproblem
  | Time :     0.007 s
  Starting ELPA eigensolver
  Finished solving standard eigenproblem
  | Time :     0.040 s
  Finished back-transformation of eigenvectors
  | Time :     0.002 s

  Obtaining occupation numbers and chemical potential using ELSI.
  | Chemical potential (Fermi level):    -3.44224650 eV
  Highest occupied state (VBM) at     -5.64652184 eV
  | Occupation number:      2.00000000

  Lowest unoccupied state (CBM) at    -1.89607178 eV
  | Occupation number:      0.00000000

  Overall HOMO-LUMO gap:      3.75045006 eV.

  Total energy components:
  | Sum of eigenvalues            :        -394.96116426 Ha      -10747.44010337 eV
  | XC energy correction          :        -102.28495846 Ha       -2783.31533322 eV
  | XC potential correction       :         131.39822316 Ha        3575.52757310 eV
  | Free-atom electrostatic energy:        -301.84942424 Ha       -8213.74074403 eV
  | Hartree energy correction     :         -26.48433128 Ha        -720.67532160 eV
  | Entropy correction            :           0.00000000 Ha           0.00000000 eV
  | ---------------------------
  | Total energy                  :        -694.18165508 Ha      -18889.64392912 eV
  | Total energy, T -> 0          :        -694.18165508 Ha      -18889.64392912 eV  <-- do not rely on this value for anything but (periodic) metals
  | Electronic free energy        :        -694.18165508 Ha      -18889.64392912 eV

  Derived energy quantities:
  | Kinetic energy                :         692.89106222 Ha       18854.52511067 eV
  | Electrostatic energy          :       -1284.78775884 Ha      -34960.85370657 eV
  | Energy correction for multipole
  | error in Hartree potential    :          -0.07816019 Ha          -2.12684685 eV
  | Sum of eigenvalues per atom                           :        -335.85750323 eV
  | Total energy (T->0) per atom                          :        -590.30137278 eV  <-- do not rely on this value for anything but (periodic) metals
  | Electronic free energy per atom                       :        -590.30137278 eV

  Self-consistency convergence accuracy:
  | Change of charge density      :  0.1592E+00
  | Change of sum of eigenvalues  :  0.1017E+02 eV
  | Change of total energy        :  0.1505E+00 eV

  End self-consistency iteration #     3       :  max(cpu_time)    wall_clock(cpu1)
  | Time for this iteration                    :        2.501 s           2.501 s
  | Charge density update                      :        0.623 s           0.620 s
  | Density mixing                             :        0.003 s           0.004 s
  | Hartree multipole update                   :        0.007 s           0.007 s
  | Hartree multipole summation                :        0.254 s           0.254 s
  | Integration                                :        1.533 s           1.533 s
  | Solution of K.-S. eqns.                    :        0.075 s           0.076 s
  | Total energy evaluation                    :        0.000 s           0.002 s

  Partial memory accounting:
  | Current value for overall tracked memory usage on task 0  :           2.053 MB
  | Peak value for overall tracked memory usage on task 0     :          21.891 MB after allocating zora_vector2
  | Largest tracked array allocation on task 0 so far         :           5.821 MB  when allocating hamiltonian_shell
  Note:  These values currently only include a subset of arrays which are explicitly tracked.
  The "true" memory usage will be greater.
------------------------------------------------------------

------------------------------------------------------------
          Begin self-consistency iteration #    4

  Date     :  20210620, Time     :  175007.053
------------------------------------------------------------
  Evaluating new KS density.
[...]
  | Current value for overall tracked memory usage on task 0  :           2.053 MB
  | Peak value for overall tracked memory usage on task 0     :          21.891 MB after allocating zora_vector2
  | Largest tracked array allocation on task 0 so far         :           5.821 MB  when allocating hamiltonian_shell
  Note:  These values currently only include a subset of arrays which are explicitly tracked.
  The "true" memory usage will be greater.
------------------------------------------------------------
  |------------------------------------------------------
  | Final ELSI Output
  |------------------------------------------------------
  |
  | Physical Properties
  |   Number of electrons       :        0.12200000E+03
  |   Number of spins           :                     1
  |   Number of k-points        :                     1
  |   Number of states          :                   136
  |
  | Matrix Properties
  |   Matrix format             :           BLACS_DENSE
  |   Number of basis functions :                   912
  |   Matrix sparsity           :        0.89234187E-02
  |
  | Computational Details
  |   Parallel mode             :            MULTI_PROC
  |   Number of MPI tasks       :                    56
  |   Solver requested          :                  ELPA
  |   Number of ELSI calls      :                    17
  |
  |------------------------------------------------------
  | ELSI Project (c)  elsi-interchange.org
  |------------------------------------------------------

------------------------------------------------------------
          Post-processing: scaled ZORA corrections to eigenvalues and total energy.

  Date     :  20210620, Time     :  175039.567
------------------------------------------------------------
  Computing correction matrix for scaled ZORA eigenvalues.
  Evaluating scaled zora correction for each Kohn-Sham eigenstate.
  Evaluating scaled zora correction for each Kohn-Sham eigenstate.
  Time get_set_sparse_local_matrix_scalapack:     2.228567 s
  Writing Kohn-Sham eigenvalues.

  State    Occupation    Eigenvalue [Ha]    Eigenvalue [eV]
      1       2.00000          -9.907426         -269.59476
      2       2.00000          -9.906509         -269.56981
      3       2.00000          -9.903874         -269.49812
      4       2.00000          -9.901331         -269.42892
      5       2.00000          -9.895118         -269.25986
      6       2.00000          -9.894282         -269.23711
      7       2.00000          -9.893478         -269.21523
      8       2.00000          -9.892360         -269.18482
      9       2.00000          -9.892187         -269.18012
     10       2.00000          -9.891826         -269.17029
     11       2.00000          -9.890982         -269.14731
     12       2.00000          -9.890225         -269.12673
     13       2.00000          -9.890091         -269.12307
     14       2.00000          -9.890083         -269.12286
     15       2.00000          -9.889449         -269.10560
     16       2.00000          -9.889419         -269.10478
     17       2.00000          -9.889360         -269.10318
     18       2.00000          -9.887462         -269.05153
     19       2.00000          -0.806694          -21.95125
     20       2.00000          -0.788105          -21.44542
     21       2.00000          -0.776323          -21.12482
     22       2.00000          -0.713588          -19.41773
     23       2.00000          -0.708515          -19.27967
     24       2.00000          -0.680004          -18.50386
     25       2.00000          -0.675101          -18.37043
     26       2.00000          -0.666482          -18.13590
     27       2.00000          -0.650767          -17.70827
     28       2.00000          -0.575939          -15.67210
     29       2.00000          -0.560946          -15.26411
     30       2.00000          -0.548881          -14.93581
     31       2.00000          -0.545038          -14.83123
     32       2.00000          -0.524997          -14.28590
     33       2.00000          -0.518983          -14.12224
     34       2.00000          -0.485460          -13.21004
     35       2.00000          -0.465011          -12.65358
     36       2.00000          -0.443945          -12.08036
     37       2.00000          -0.424601          -11.55398
     38       2.00000          -0.415242          -11.29932
     39       2.00000          -0.412068          -11.21295
     40       2.00000          -0.400149          -10.88861
     41       2.00000          -0.393851          -10.71722
     42       2.00000          -0.386639          -10.52098
     43       2.00000          -0.376771          -10.25246
     44       2.00000          -0.374362          -10.18691
     45       2.00000          -0.373525          -10.16414
     46       2.00000          -0.369590          -10.05706
     47       2.00000          -0.341887           -9.30321
     48       2.00000          -0.339839           -9.24748
     49       2.00000          -0.333279           -9.06899
     50       2.00000          -0.326368           -8.88091
     51       2.00000          -0.314974           -8.57089
     52       2.00000          -0.301885           -8.21470
     53       2.00000          -0.298941           -8.13459
     54       2.00000          -0.293048           -7.97423
     55       2.00000          -0.289675           -7.88246
     56       2.00000          -0.252730           -6.87713
     57       2.00000          -0.244508           -6.65341
     58       2.00000          -0.234489           -6.38077
     59       2.00000          -0.229343           -6.24074
     60       2.00000          -0.225878           -6.14646
     61       2.00000          -0.204984           -5.57790
     62       0.00000          -0.067434           -1.83496
     63       0.00000          -0.051516           -1.40182
     64       0.00000          -0.045564           -1.23986
     65       0.00000          -0.035013           -0.95274
     66       0.00000          -0.026783           -0.72881
     67       0.00000          -0.016852           -0.45856
     68       0.00000          -0.007593           -0.20660
     69       0.00000           0.002814            0.07657
     70       0.00000           0.005063            0.13777
     71       0.00000           0.015050            0.40953
     72       0.00000           0.023411            0.63706
     73       0.00000           0.026231            0.71377
     74       0.00000           0.031159            0.84789
     75       0.00000           0.042749            1.16326
     76       0.00000           0.048916            1.33107
     77       0.00000           0.049591            1.34944
     78       0.00000           0.060417            1.64403
     79       0.00000           0.064972            1.76798
     80       0.00000           0.067087            1.82554
     81       0.00000           0.085313            2.32148
     82       0.00000           0.094022            2.55847
     83       0.00000           0.100415            2.73244
     84       0.00000           0.107426            2.92320
     85       0.00000           0.112065            3.04946
     86       0.00000           0.117709            3.20304
     87       0.00000           0.121443            3.30463
     88       0.00000           0.124581            3.39001
     89       0.00000           0.135018            3.67402
     90       0.00000           0.151179            4.11380
     91       0.00000           0.155277            4.22531
     92       0.00000           0.157952            4.29810
     93       0.00000           0.161372            4.39116
     94       0.00000           0.163236            4.44189
     95       0.00000           0.164297            4.47076
     96       0.00000           0.170546            4.64079
     97       0.00000           0.173677            4.72599
     98       0.00000           0.178215            4.84949
     99       0.00000           0.183640            4.99710
    100       0.00000           0.190409            5.18129
    101       0.00000           0.194685            5.29764
    102       0.00000           0.199151            5.41918
    103       0.00000           0.206180            5.61043
    104       0.00000           0.210154            5.71857
    105       0.00000           0.214034            5.82417
    106       0.00000           0.216887            5.90179
    107       0.00000           0.218705            5.95128
    108       0.00000           0.222841            6.06381
    109       0.00000           0.228300            6.21236
    110       0.00000           0.230136            6.26232
    111       0.00000           0.234351            6.37703
    112       0.00000           0.235018            6.39518
    113       0.00000           0.238287            6.48411
    114       0.00000           0.243117            6.61555
    115       0.00000           0.244582            6.65542
    116       0.00000           0.254519            6.92583
    117       0.00000           0.258046            7.02178
    118       0.00000           0.262653            7.14715
    119       0.00000           0.264790            7.20529
    120       0.00000           0.271826            7.39676
    121       0.00000           0.279973            7.61844
    122       0.00000           0.283053            7.70227
    123       0.00000           0.287354            7.81930
    124       0.00000           0.291061            7.92017
    125       0.00000           0.293729            7.99279
    126       0.00000           0.299978            8.16282
    127       0.00000           0.304714            8.29168
    128       0.00000           0.310414            8.44679
    129       0.00000           0.316934            8.62421
    130       0.00000           0.324181            8.82142
    131       0.00000           0.325350            8.85322
    132       0.00000           0.329975            8.97907
    133       0.00000           0.335383            9.12624
    134       0.00000           0.344660            9.37866
    135       0.00000           0.353282            9.61331
    136       0.00000           0.356158            9.69156

  Highest occupied state (VBM) at     -5.57789718 eV
  | Occupation number:      2.00000000

  Lowest unoccupied state (CBM) at    -1.83496050 eV
  | Occupation number:      0.00000000

  Overall HOMO-LUMO gap:      3.74293668 eV.

  Total energy components:
  | Sum of eigenvalues            :        -394.77773345 Ha      -10742.44869695 eV
  | XC energy correction          :        -102.24505221 Ha       -2782.22942886 eV
  | XC potential correction       :         131.34622268 Ha        3574.11256804 eV
  | Free-atom electrostatic energy:        -301.84942424 Ha       -8213.74074403 eV
  | Hartree energy correction     :         -26.50213738 Ha        -721.15985032 eV
  | Entropy correction            :           0.00000000 Ha           0.00000000 eV
  | ---------------------------
  | Total energy                  :        -694.02812459 Ha      -18885.46615211 eV
  | Total energy, T -> 0          :        -694.02812459 Ha      -18885.46615211 eV  <-- do not rely on this value for anything but (periodic) metals
  | Electronic free energy        :        -694.02812459 Ha      -18885.46615211 eV

  Derived energy quantities:
  | Kinetic energy                :         692.47598963 Ha       18843.23041091 eV
  | Electrostatic energy          :       -1284.25906202 Ha      -34946.46713417 eV
  | Energy correction for multipole
  | error in Hartree potential    :          -0.07918964 Ha          -2.15485976 eV
  | Sum of eigenvalues per atom                           :        -335.70152178 eV
  | Total energy (T->0) per atom                          :        -590.17081725 eV  <-- do not rely on this value for anything but (periodic) metals
  | Electronic free energy per atom                       :        -590.17081725 eV
  End evaluation of scaled ZORA corrections.
  | Time for scaled ZORA corrections           :        2.963 s           2.973 s
------------------------------------------------------------

  Energy and forces in a compact form:
  | Total energy uncorrected      :         -0.188854661521110E+05 eV
  | Total energy corrected        :         -0.188854661521110E+05 eV  <-- do not rely on this value for anything but (periodic) metals
  | Electronic free energy        :         -0.188854661521110E+05 eV

  ------------------------------------ 
  Start decomposition of the XC Energy 
  ------------------------------------ 
  X and C from original XC functional choice 
  Hartree-Fock Energy :          0.000000000 Ha              0.000000000 eV
  X Energy            :        -98.194260125 Ha          -2672.001767955 eV
  C Energy            :         -4.050792083 Ha           -110.227660901 eV
  Total XC Energy     :       -102.245052208 Ha          -2782.229428856 eV
  ------------------------------------ 
  LDA X and C from self-consistent density 
  X Energy LDA        :        -88.904206786 Ha          -2419.206554509 eV
  C Energy LDA        :         -7.827865715 Ha           -213.007063792 eV
  ------------------------------------ 
  End decomposition of the XC Energy 
  ------------------------------------ 

------------------------------------------------------------

------------------------------------------------------------------------------
  Final output of selected total energy values:

  The following output summarizes some interesting total energy values
  at the end of a run (AFTER all relaxation, molecular dynamics, etc.).

  | Total energy of the DFT / Hartree-Fock s.c.f. calculation      :         -18885.466152111 eV
  | Final zero-broadening corrected energy (caution - metals only) :         -18885.466152111 eV
  | For reference only, the value of 1 Hartree used in FHI-aims is :             27.211384500 eV

  Before relying on these values, please be sure to understand exactly which
  total energy value is referred to by a given number. Different objects may
  all carry the same name 'total energy'. Definitions:

  Total energy of the DFT / Hartree-Fock s.c.f. calculation:
  | Note that this energy does not include ANY quantities calculated after the
  | s.c.f. cycle, in particular not ANY RPA, MP2, etc. many-body perturbation terms.
  | Scalar relativistic effects have been included in the 'scaled ZORA' approximation.

  Final zero-broadening corrected energy:
  | For metallic systems only, a broadening of the occupation numbers at the Fermi
  | level can be extrapolated back to zero broadening by an electron-gas inspired
  | formula. For all systems that are not real metals, this value can be
  | meaningless and should be avoided.

------------------------------------------------------------------------------
  Methods described in the following list of references were used in this FHI-aims run.
  If you publish the results, please make sure to cite these reference if they apply.
  FHI-aims is an academic code, and for our developers (often, Ph.D. students
  and postdocs), scientific credit in the community is essential.
  Thank you for helping us!

  For any use of FHI-aims, please cite:

    Volker Blum, Ralf Gehrke, Felix Hanke, Paula Havu, Ville Havu,
    Xinguo Ren, Karsten Reuter, and Matthias Scheffler
    'Ab initio molecular simulations with numeric atom-centered orbitals'
    Computer Physics Communications 180, 2175-2196 (2009)
    http://dx.doi.org/10.1016/j.cpc.2009.06.022


  The scalable eigensolver library ELPA was used in your run.
  ELPA is essential especially for large systems on hundreds or thousands of CPUs.
  For ELPA, please cite:

    Andreas Marek, Volker Blum, Rainer Johanni, Ville Havu, Bruno Lang,
    Thomas Auckenthaler, Alexander Heinecke, Hans-Joachim Bungartz, and Hermann Lederer,
    'The ELPA Library - Scalable Parallel Eigenvalue Solutions
    for Electronic Structure Theory and Computational Science'
    The Journal of Physics: Condensed Matter 26, 213201 (2014).
    http://dx.doi.org/10.1088/0953-8984/26/21/213201


  The ELSI infrastructure was used in your run to solve the Kohn-Sham electronic structure.
  Please check out http://elsi-interchange.org to learn more.
  If scalability is important for your project, please acknowledge ELSI by citing:

    V. W-z. Yu, F. Corsetti, A. Garcia, W. P. Huhn, M. Jacquelin, W. Jia,
    B. Lange, L. Lin, J. Lu, W. Mi, A. Seifitokaldani, A. Vazquez-Mayagoitia,
    C. Yang, H. Yang, and V. Blum
    'ELSI: A unified software interface for Kohn-Sham electronic structure solvers'
    Computer Physics Communications 222, 267-285 (2018).
    http://dx.doi.org/10.1016/j.cpc.2017.09.007


  For the real-space grid partitioning and parallelization used in this calculation, please cite:

    Ville Havu, Volker Blum, Paula Havu, and Matthias Scheffler,
    'Efficient O(N) integration for all-electron electronic structure calculation'
    'using numerically tabulated basis functions'
    Journal of Computational Physics 228, 8367-8379 (2009).
    http://dx.doi.org/10.1016/j.jcp.2009.08.008

  Of course, there are many other important community references, e.g., those cited in the
  above references. Our list is limited to references that describe implementations in the
  FHI-aims code. The reason is purely practical (length of this list) - please credit others as well.

------------------------------------------------------------
          Leaving FHI-aims.
          Date     :  20210620, Time     :  175042.583

          Computational steps:
          | Number of self-consistency cycles          :           16
          | Number of SCF (re)initializations          :            1

          Detailed time accounting                     :  max(cpu_time)    wall_clock(cpu1)
          | Total time                                 :       47.691 s          47.948 s
          | Preparation time                           :        0.190 s           0.179 s
          | Boundary condition initalization           :        0.001 s           0.004 s
          | Grid partitioning                          :        0.433 s           0.438 s
          | Preloading free-atom quantities on grid    :        0.023 s           0.026 s
          | Free-atom superposition energy             :        0.067 s           0.090 s
          | Total time for integrations                :       27.795 s          27.828 s
          | Total time for solution of K.-S. equations :        1.263 s           1.315 s
          | Total time for density update              :        9.963 s           9.925 s
          | Total time for mixing                      :        0.077 s           0.082 s
          | Total time for Hartree multipole update    :        0.109 s           0.114 s
          | Total time for Hartree multipole sum       :        4.182 s           4.182 s
          | Total time for total energy evaluation     :        0.009 s           0.030 s
          | Total time for scaled ZORA corrections     :        2.963 s           2.973 s

          Partial memory accounting:
          | Residual value for overall tracked memory usage across tasks :     0.000000 MB (should be 0.000000 MB)
          | Peak values for overall tracked memory usage (after allocating zora_vector2):
          |   Minimum:       20.581 MB (on task 56)
          |   Maximum:       24.293 MB (on task 14)
          |   Average:       22.822 MB
          | Largest tracked array allocation (hamiltonian_shell):
          |   Minimum:        5.821 MB (on task  1)
          |   Maximum:        5.821 MB (on task  1)
          |   Average:        5.821 MB
          Note:  These values currently only include a subset of arrays which are explicitly tracked.
          The "true" memory usage will be greater.

          Have a nice day.
------------------------------------------------------------
