  MPI-parallelism will be employed.
------------------------------------------------------------
          Invoking FHI-aims ...
          Version 180607
          Git rev. (modified): 6724847 Fix JSON memory corruption in scf_solver
          Compiled on 2018/06/27 at 16:00:31 on host coe.psc.edu.

          When using FHI-aims, please cite the following reference:

          Volker Blum, Ralf Gehrke, Felix Hanke, Paula Havu,
          Ville Havu, Xinguo Ren, Karsten Reuter, and Matthias Scheffler,
          'Ab Initio Molecular Simulations with Numeric Atom-Centered Orbitals',
          Computer Physics Communications 180, 2175-2196 (2009)

          For any questions about FHI-aims, please visit the aimsclub website
          with its forums and wiki. Contributions to both the forums and the
          wiki are warmly encouraged - they are for you, and everyone is welcome there.

------------------------------------------------------------



  Date     :  20210620, Time     :  172653.065
  Time zero on CPU 1             :   0.253121000000000E+00  s.
  Internal wall clock time zero  :           393442013.065  s.

  FHI-aims created a unique identifier for this run for later identification
  aims_uuid : F77A83B8-F2BE-407E-AB5B-5D1612F14F78

  Using       56 parallel tasks.
  Task        0 on host d001 reporting.
  Task        1 on host d001 reporting.
  Task        2 on host d001 reporting.
  Task        3 on host d001 reporting.
  Task        4 on host d001 reporting.
  Task        5 on host d001 reporting.
  Task        6 on host d001 reporting.
  Task        7 on host d001 reporting.
  Task        8 on host d001 reporting.
  Task        9 on host d001 reporting.
  Task       10 on host d001 reporting.
  Task       11 on host d001 reporting.
  Task       12 on host d001 reporting.
  Task       13 on host d001 reporting.
  Task       14 on host d001 reporting.
  Task       15 on host d001 reporting.
  Task       16 on host d001 reporting.
  Task       17 on host d001 reporting.
  Task       18 on host d001 reporting.
  Task       19 on host d001 reporting.
  Task       20 on host d001 reporting.
  Task       21 on host d001 reporting.
  Task       22 on host d001 reporting.
  Task       23 on host d001 reporting.
  Task       24 on host d001 reporting.
  Task       25 on host d001 reporting.
  Task       26 on host d001 reporting.
  Task       27 on host d001 reporting.
  Task       28 on host d001 reporting.
  Task       29 on host d001 reporting.
  Task       30 on host d001 reporting.
  Task       31 on host d001 reporting.
  Task       32 on host d001 reporting.
  Task       33 on host d001 reporting.
  Task       34 on host d001 reporting.
  Task       35 on host d001 reporting.
  Task       36 on host d001 reporting.
  Task       37 on host d001 reporting.
  Task       38 on host d001 reporting.
  Task       39 on host d001 reporting.
  Task       40 on host d001 reporting.
  Task       41 on host d001 reporting.
  Task       42 on host d001 reporting.
  Task       43 on host d001 reporting.
  Task       44 on host d001 reporting.
  Task       45 on host d001 reporting.
  Task       46 on host d001 reporting.
  Task       47 on host d001 reporting.
  Task       48 on host d001 reporting.
  Task       49 on host d001 reporting.
  Task       50 on host d001 reporting.
  Task       51 on host d001 reporting.
  Task       52 on host d001 reporting.
  Task       53 on host d001 reporting.
  Task       54 on host d001 reporting.
  Task       55 on host d001 reporting.

  Performing system and environment tests:
  *** Environment variable OMP_NUM_THREADS is not set
  *** For performance reasons you might want to set it to 1
  | Stacksize not measured: no C compiler
  | Checking for scalapack...
  | Testing pdtran()...
  | All pdtran() tests passed.

  Obtaining array dimensions for all initial allocations:
  
  -----------------------------------------------------------------------
  Parsing control.in (first pass over file, find array dimensions only).
  The contents of control.in will be repeated verbatim below
  unless switched off by setting 'verbatim_writeout .false.' .
  in the first line of control.in .
  -----------------------------------------------------------------------
  
  #===============================================================================
  # FHI-aims file: ./Runs/es/control.in
  # Created using the Atomic Simulation Environment (ASE)
  # Mon Jan 13 16:04:38 2020
  #===============================================================================
  xc                                 pbe
  relativistic                       zora scalar 1e-12
  occupation_type                    gaussian 0.0001
  load_balancing                     .true.
  KS_method                          scalapack_fast
  mixer                              pulay
  n_max_pulay                        5
  charge_mix_param                   0.4
  sc_accuracy_etot                   1e-6
  sc_accuracy_eev                    1e-4
  sc_accuracy_rho                    1e-6
  sc_iter_limit                      100
  prodbas_threshold                  1e-4
  basis_threshold                    1e-5
  override_illconditioning           .true.
  use_logsbt                         .true.
  spin                               none
  charge                             0
  #===============================================================================
  
  ################################################################################
  #
  #  FHI-aims code project
  # Volker Blum, Fritz Haber Institute Berlin, 2009
  #
  #  Suggested "tight" defaults for H atom (to be pasted into control.in file)
  #
  ################################################################################
    species        H
  #     global species definitions
      nucleus             1
      mass                1.00794
  #
      l_hartree           6
  #
      cut_pot             4.0  2.0  1.0
      basis_dep_cutoff    1e-4
  #
      radial_base         24 7.0
      radial_multiplier   2
      angular_grids       specified
        division   0.1930   50
        division   0.3175  110
        division   0.4293  194
        division   0.5066  302
        division   0.5626  434
  #      division   0.5922  590
  #      division   0.6227  974
  #      division   0.6868 1202
  #      outer_grid  770
        outer_grid  434
  ################################################################################
  #
  #  Definition of "minimal" basis
  #
  ################################################################################
  #     valence basis states
      valence      1  s   1.
  #     ion occupancy
      ion_occ      1  s   0.5
  ################################################################################
  #
  #  Suggested additional basis functions. For production calculations,
  #  uncomment them one after another (the most important basis functions are
  #  listed first).
  #
  #  Basis constructed for dimers: 0.5 A, 0.7 A, 1.0 A, 1.5 A, 2.5 A
  #
  ################################################################################
  #  "First tier" - improvements: -1014.90 meV to -62.69 meV
       hydro 2 s 2.1
       hydro 2 p 3.5
  #  "Second tier" - improvements: -12.89 meV to -1.83 meV
       hydro 1 s 0.85
       hydro 2 p 3.7
       hydro 2 s 1.2
       hydro 3 d 7
  #  "Third tier" - improvements: -0.25 meV to -0.12 meV
  #     hydro 4 f 11.2
  #     hydro 3 p 4.8
  #     hydro 4 d 9
  #     hydro 3 s 3.2
  ################################################################################
  #
  # For methods that use the localized form of the "resolution of identity" for
  # the two-electron Coulomb operator (RI_method LVL), particularly Hartree-Fock and
  # hybrid density functional calculations, the highest accuracy can be obtained by
  # uncommenting the line beginning with "for_aux"  below, thus adding an extra g radial
  # function to the construction of the product basis set for the expansion.
  # See Ref. New J. Phys. 17, 093020 (2015) for more information, particularly Figs. 1 and 6.
  #
  ################################################################################
  #
  # for_aux hydro 5 g 6.0
  ################################################################################
  #
  #  FHI-aims code project
  # Volker Blum, Fritz Haber Institute Berlin, 2009
  #
  #  Suggested "tight" defaults for C atom (to be pasted into control.in file)
  #
  ################################################################################
    species        C
  #     global species definitions
      nucleus             6
      mass                12.0107
  #
      l_hartree           6
  #
      cut_pot             4.0  2.0  1.0
      basis_dep_cutoff    1e-4
  #
      radial_base         34 7.0
      radial_multiplier   2
      angular_grids specified
        division   0.2187   50
        division   0.4416  110
        division   0.6335  194
        division   0.7727  302
        division   0.8772  434
  #      division   0.9334  590
  #      division   0.9924  770
  #      division   1.0230  974
  #      division   1.5020 1202
  #     outer_grid  974
        outer_grid  434
  ################################################################################
  #
  #  Definition of "minimal" basis
  #
  ################################################################################
  #     valence basis states
      valence      2  s   2.
      valence      2  p   2.
  #     ion occupancy
      ion_occ      2  s   1.
      ion_occ      2  p   1.
  ################################################################################
  #
  #  Suggested additional basis functions. For production calculations,
  #  uncomment them one after another (the most important basis functions are
  #  listed first).
  #
  #  Constructed for dimers: 1.0 A, 1.25 A, 1.5 A, 2.0 A, 3.0 A
  #
  ################################################################################
  #  "First tier" - improvements: -1214.57 meV to -155.61 meV
       hydro 2 p 1.7
       hydro 3 d 6
       hydro 2 s 4.9
  #  "Second tier" - improvements: -67.75 meV to -5.23 meV
       hydro 4 f 9.8
       hydro 3 p 5.2
       hydro 3 s 4.3
       hydro 5 g 14.4
       hydro 3 d 6.2
  #  "Third tier" - improvements: -2.43 meV to -0.60 meV
  #     hydro 2 p 5.6
  #     hydro 2 s 1.4
  #     hydro 3 d 4.9
  #     hydro 4 f 11.2
  #  "Fourth tier" - improvements: -0.39 meV to -0.18 meV
  #     hydro 2 p 2.1
  #     hydro 5 g 16.4
  #     hydro 4 d 13.2
  #     hydro 3 s 13.6
  #     hydro 4 f 17.6
  #  Further basis functions - improvements: -0.08 meV and below
  #     hydro 3 s 2
  #     hydro 3 p 6
  #     hydro 4 d 20
  ################################################################################
  #
  # For methods that use the localized form of the "resolution of identity" for
  # the two-electron Coulomb operator (RI_method LVL), particularly Hartree-Fock and
  # hybrid density functional calculations, the highest accuracy can be obtained by
  # uncommenting the line beginning with "for_aux"  below, thus adding an extra g radial
  # function to the construction of the product basis set for the expansion.
  # See Ref. New J. Phys. 17, 093020 (2015) for more information, particularly Figs. 1 and 6.
  #
  ################################################################################
  #
  # for_aux hydro 5 g 6.0
  
  -----------------------------------------------------------------------
  Completed first pass over input file control.in .
  -----------------------------------------------------------------------
  
  
  -----------------------------------------------------------------------
  Parsing geometry.in (first pass over file, find array dimensions only).
  The contents of geometry.in will be repeated verbatim below
  unless switched off by setting 'verbatim_writeout .false.' .
  in the first line of geometry.in .
  -----------------------------------------------------------------------
  
  #=======================================================
  # FHI-aims file: geometry.in
  # Created using the Atomic Simulation Environment (ASE)
  # Sun Jun 20 15:47:01 2021
  #=======================================================
  atom 15.6303169999999998 31.6103710000000007 60.4421579999999992 H
  atom 15.2059359999999995 32.1676569999999984 61.2776149999999973 C
  atom 13.8806340000000006 32.4758279999999999 61.2875549999999976 C
  atom 16.0336099999999995 32.5777330000000021 62.3411949999999990 C
  atom 13.2495379999999994 32.1661840000000012 60.4570679999999996 H
  atom 13.2911690000000000 33.2075809999999976 62.3536199999999994 C
  atom 15.5302950000000006 33.2665140000000008 63.3774400000000000 C
  atom 17.0945269999999994 32.3259169999999969 62.3126180000000005 H
  atom 11.9330440000000007 33.5734569999999977 62.3461649999999992 C
  atom 14.1367080000000005 33.6078350000000015 63.4370800000000017 C
  atom 16.1712890000000016 33.5809470000000019 64.2004720000000049 H
  atom 11.0550820000000005 33.1989870000000025 61.1980950000000021 C
  atom 11.4073600000000006 34.3187160000000020 63.4147150000000011 C
  atom 13.6007029999999993 34.3408159999999967 64.5081150000000036 C
  atom 10.5468050000000009 31.9135080000000002 61.0788149999999987 C
  atom 10.7211230000000004 34.1247279999999975 60.2438550000000035 C
  atom 10.0303070000000005 34.7337029999999984 63.4370800000000017 C
  atom 12.2398000000000007 34.6980980000000017 64.5081150000000036 C
  atom 14.4832889999999992 34.8012310000000014 65.6313350000000071 C
  atom 9.7213720000000006 31.5918309999999991 60.0177199999999971 C
  atom 10.7861840000000004 31.1626019999999997 61.8295340000000024 H
  atom 9.9065429999999992 33.7870899999999992 59.1852450000000019 C
  atom 11.1072740000000003 35.1419380000000032 60.3223810000000000 H
  atom 9.3864370000000008 34.4536480000000012 62.6053509999999989 H
  atom 9.5452480000000008 35.4666840000000008 64.4584150000000022 C
  atom 11.6627709999999993 35.4580890000000011 65.5667250000000053 C
  atom 14.6158260000000002 34.0449219999999997 66.7992849999999976 C
  atom 15.1573790000000006 36.0265479999999982 65.4971450000000033 C
  atom 9.3243829999999992 30.5780589999999997 59.9521159999999966 H
  atom 9.3952220000000004 32.5114340000000013 59.0759049999999988 C
  atom 9.6624529999999993 34.5409429999999986 58.4375089999999986 H
  atom 8.5026659999999996 35.7820990000000023 64.4474809999999962 H
  atom 10.3623399999999997 35.8313320000000033 65.5393899999999974 C
  atom 12.2988070000000000 35.7340930000000014 66.4071519999999964 H
  atom 13.9340620000000008 32.8036439999999985 66.9632950000000022 C
  atom 15.4262899999999998 34.5262090000000015 67.8777749999999997 C
  atom 15.0282769999999992 36.8356509999999986 64.3267100000000056 C
  atom 15.9916630000000008 36.5004690000000025 66.5656950000000052 C
  atom 8.7440189999999998 32.2499180000000010 58.2411940000000001 H
  atom 9.9427470000000007 36.4179620000000028 66.3562100000000044 H
  atom 13.3125509999999991 32.4435379999999967 66.1452330000000046 H
  atom 14.0482019999999999 32.0853960000000029 68.1014250000000061 C
  atom 15.4941209999999998 33.7392070000000004 69.0606350000000049 C
  atom 16.1054080000000006 35.7539829999999981 67.7535249999999962 C
  atom 14.3855269999999997 36.4782459999999986 63.5223159999999964 H
  atom 15.6727310000000006 38.0094020000000015 64.2049449999999950 C
  atom 16.6727640000000008 37.7491139999999987 66.3768349999999998 C
  atom 13.5163899999999995 31.1375549999999990 68.1990859999999941 H
  atom 14.8315389999999994 32.5593170000000001 69.1600349999999935 C
  atom 16.0943150000000017 34.0963660000000033 69.8946009999999944 H
  atom 16.9345260000000017 36.2819250000000011 68.8717749999999995 C
  atom 15.5515629999999998 38.6133430000000004 63.3083570000000009 H
  atom 16.5082069999999987 38.4649059999999992 65.2511300000000034 C
  atom 17.3102459999999994 38.1214980000000025 67.1772540000000049 H
  atom 14.9074089999999995 31.9785800000000009 70.0784909999999996 H
  atom 16.4923080000000013 37.3488600000000019 69.6396400000000000 C
  atom 18.1643100000000004 35.7380210000000034 69.1749449999999939 C
  atom 17.0229749999999989 39.4187629999999984 65.1398020000000031 H
  atom 15.5182459999999995 37.7919630000000026 69.4313970000000040 H
  atom 17.2810659999999991 37.8706630000000004 70.6535200000000003 C
  atom 18.5352330000000016 34.8908580000000015 68.5946979999999940 H
  atom 18.9570369999999997 36.2671920000000014 70.2037349999999947 C
  atom 16.9172490000000018 38.7213870000000000 71.2310339999999940 H
  atom 18.5035719999999984 37.3304430000000025 70.9293550000000010 C
  atom 19.9263760000000012 35.8172130000000024 70.4184390000000064 H
  atom 19.1152189999999997 37.7487459999999970 71.7310159999999968 H
  
  -----------------------------------------------------------------------
  Completed first pass over input file geometry.in .
  -----------------------------------------------------------------------
  

  Basic array size parameters:
  | Number of species                 :        2
  | Number of atoms                   :       66
  | Max. basis fn. angular momentum   :        4
  | Max. atomic/ionic basis occupied n:        2
  | Max. number of basis fn. types    :        2
  | Max. radial fns per species/type  :        8
  | Max. logarithmic grid size        :     1277
  | Max. radial integration grid size :       69
  | Max. angular integration grid size:      434
  | Max. angular grid division number :        8
  | Radial grid for Hartree potential :     1277
  | Number of spin channels           :        1

------------------------------------------------------------
          Reading file control.in.
------------------------------------------------------------
  XC: Using PBE gradient-corrected functionals.
  Scalar relativistic treatment of kinetic energy: ZORA.
  Threshold value for ZORA:   0.100000E-11
  Occupation type: Gaussian broadening, width =   0.100000E-03 eV.
  Since 'load_balancing .true.' is present in control.in, automatically turning on 'use_local_index .true.'.
  Using load balancing for integrations.
  Kohn-Sham electronic structure solved by the ELSI library.
  Using pulay charge density mixing.
  Pulay mixing - number of memorized iterations:    5
  Charge density mixing - mixing parameter:     0.4000
  Convergence accuracy of total energy:  0.1000E-05
  Convergence accuracy of sum of eigenvalues:  0.1000E-03
  Convergence accuracy of self-consistent charge density:  0.1000E-05
  Maximum number of s.-c. iterations  :   100
  * Ignoring prodbas_threshold
  Threshold for basis singularities:  0.1000E-04
  override_illconditioning: Explicitly overriding any built-in checks for an ill-conditioned overlap matrix.
  *** WARNING: If you use this flag, you should really know what you are doing.
  *** DO NOT keep this flag set by default in all your control.in files.
  Using 1D integrations for auxiliary 2-center integrals.
  Spin treatment: No spin polarisation.
  Charge =   0.000000E+00: Neutral system requested explicitly.
 
  Reading configuration options for species H                   .
  | Found nuclear charge :   1.0000
  | Found atomic mass :    1.00794000000000      amu
  | Found l_max for Hartree potential  :   6
  | Found cutoff potl. onset [A], width [A], scale factor :    4.00000    2.00000    1.00000
  | Threshold for basis-dependent cutoff potential is   0.100000E-03
  | Found data for basic radial integration grid :    24 points, outermost radius =    7.000 A
  | Found multiplier for basic radial grid :   2
  | Found angular grid specification: user-specified.
  | Specified grid contains     6 separate shells.
  | Check grid settings after all constraints further below.
  | Found free-atom valence shell :  1 s   1.000
  | No ionic wave fns used. Skipping ion_occ.
  | Found hydrogenic basis function :  2 s   2.100
  | Found hydrogenic basis function :  2 p   3.500
  | Found hydrogenic basis function :  1 s   0.850
  | Found hydrogenic basis function :  2 p   3.700
  | Found hydrogenic basis function :  2 s   1.200
  | Found hydrogenic basis function :  3 d   7.000
  Species H                   : Missing cutoff potential type.
  Defaulting to exp(1/x)/(1-x)^2 type cutoff potential.
  Species H : No 'logarithmic' tag. Using default grid for free atom:
  | Default logarithmic grid data [bohr] : 0.1000E-03 0.1000E+03 0.1012E+01
  Species H : On-site basis accuracy parameter (for Gram-Schmidt orthonormalisation) not specified.
  Using default value basis_acc =  0.1000000E-03.
  Species H                   : Using default innermost maximum threshold i_radial=  2 for radial functions.
  Species H                   : Default cutoff onset for free atom density etc. : 0.40000000E+01 AA.
  Species H                   : Basic radial grid will be enhanced according to radial_multiplier =   2, to contain    49 grid points.
 
  Reading configuration options for species C                   .
  | Found nuclear charge :   6.0000
  | Found atomic mass :    12.0107000000000      amu
  | Found l_max for Hartree potential  :   6
  | Found cutoff potl. onset [A], width [A], scale factor :    4.00000    2.00000    1.00000
  | Threshold for basis-dependent cutoff potential is   0.100000E-03
  | Found data for basic radial integration grid :    34 points, outermost radius =    7.000 A
  | Found multiplier for basic radial grid :   2
  | Found angular grid specification: user-specified.
  | Specified grid contains     6 separate shells.
  | Check grid settings after all constraints further below.
  | Found free-atom valence shell :  2 s   2.000
  | Found free-atom valence shell :  2 p   2.000
  | No ionic wave fns used. Skipping ion_occ.
  | No ionic wave fns used. Skipping ion_occ.
  | Found hydrogenic basis function :  2 p   1.700
  | Found hydrogenic basis function :  3 d   6.000
  | Found hydrogenic basis function :  2 s   4.900
  | Found hydrogenic basis function :  4 f   9.800
  | Found hydrogenic basis function :  3 p   5.200
  | Found hydrogenic basis function :  3 s   4.300
  | Found hydrogenic basis function :  5 g  14.400
  | Found hydrogenic basis function :  3 d   6.200
  Species C                   : Missing cutoff potential type.
  Defaulting to exp(1/x)/(1-x)^2 type cutoff potential.
  Species C : No 'logarithmic' tag. Using default grid for free atom:
  | Default logarithmic grid data [bohr] : 0.1000E-03 0.1000E+03 0.1012E+01
  Species C : On-site basis accuracy parameter (for Gram-Schmidt orthonormalisation) not specified.
  Using default value basis_acc =  0.1000000E-03.
  Species C                   : Using default innermost maximum threshold i_radial=  2 for radial functions.
  Species C                   : Default cutoff onset for free atom density etc. : 0.40000000E+01 AA.
  Species C                   : Basic radial grid will be enhanced according to radial_multiplier =   2, to contain    69 grid points.
 
  Finished reading input file 'control.in'. Consistency checks are next.
 
  MPI_IN_PLACE appears to work with this MPI implementation.
  | Keeping use_mpi_in_place .true. (see manual).
  Target number of points in a grid batch is not set. Defaulting to  100
  Method for grid partitioning is not set. Defaulting to parallel hash+maxmin partitioning.
  Batch size limit is not set. Defaulting to    200
  By default, will store active basis functions for each batch.
  If in need of memory, prune_basis_once .false. can be used to disable this option.
  communication_type for Hartree potential was not specified.
  Defaulting to calc_hartree .
  Pulay mixer: Number of initial linear mixing iterations not set.
  Defaulting to    0 iterations.
  Work space size for distributed Hartree potential not set.
  Defaulting to   0.200000E+03 MB.
  Algorithm-dependent basis array size parameters:
  | n_max_pulay                         :        5
  Presetting      1001 iterations before the initial mixing cycle
  is restarted anyway using the sc_init_iter criterion / keyword.
  Presetting a factor      1.000 between actual scf density residual
  and density convergence criterion sc_accuracy_rho below which sc_init_iter
  takes no effect.
  Calculation of forces was not defined in control.in. No forces will be calculated.
  Geometry relaxation not requested: no relaxation will be performed.
  No accuracy limit for integral partition fn. given. Defaulting to  0.1000E-14.
  No threshold value for u(r) in integrations given. Defaulting to  0.1000E-05.
  No accuracy for occupation numbers given. Defaulting to  0.1000E-12.
  No threshold value for occupation numbers given. Defaulting to  0.0000E+00.
  No accuracy for fermi level given. Defaulting to  0.1000E-19.
  Maximum # of iterations to find E_F not set. Defaulting to  200.
  Will not use alltoall communication since running on < 1024 CPUs.
  partition_type (choice of integration weights) for integrals was not specified.
  | Using a version of the partition function of Stratmann and coworkers ('stratmann_sparse').
  | At each grid point, the set of atoms used to build the partition table is smoothly restricted to
  | only those atoms whose free-atom density would be non-zero at that grid point.
  Partitioning for Hartree potential was not defined. Using partition_type for integrals.
  | Adjusted default value of keyword multip_moments_threshold to:       0.10000000E-11
  | This value may affect high angular momentum components of the Hartree potential in periodic systems.
  No q(lm)/r^(l+1) cutoff set for long-range Hartree potential.
  | Using default value of  0.100000E-09 .
  | Verify using the multipole_threshold keyword.
  Defaulting to new monopole extrapolation.
  Density update method: automatic selection selected.
 * Warning: use_local_index and/or load_balancing needs packed_matrix_format = index
 * Changing the default setting to packed_matrix_format = index
------------------------------------------------------------


------------------------------------------------------------
          Reading geometry description geometry.in.
------------------------------------------------------------
  Input structure read successfully.
  The structure contains       66 atoms,  and a total of        266.000 electrons.

  Input geometry:
  | No unit cell requested.
  | Atomic structure:
  |       Atom                x [A]            y [A]            z [A]
  |    1: Species H            15.63031700       31.61037100       60.44215800
  |    2: Species C            15.20593600       32.16765700       61.27761500
  |    3: Species C            13.88063400       32.47582800       61.28755500
  |    4: Species C            16.03361000       32.57773300       62.34119500
  |    5: Species H            13.24953800       32.16618400       60.45706800
  |    6: Species C            13.29116900       33.20758100       62.35362000
  |    7: Species C            15.53029500       33.26651400       63.37744000
  |    8: Species H            17.09452700       32.32591700       62.31261800
  |    9: Species C            11.93304400       33.57345700       62.34616500
  |   10: Species C            14.13670800       33.60783500       63.43708000
  |   11: Species H            16.17128900       33.58094700       64.20047200
  |   12: Species C            11.05508200       33.19898700       61.19809500
  |   13: Species C            11.40736000       34.31871600       63.41471500
  |   14: Species C            13.60070300       34.34081600       64.50811500
  |   15: Species C            10.54680500       31.91350800       61.07881500
  |   16: Species C            10.72112300       34.12472800       60.24385500
  |   17: Species C            10.03030700       34.73370300       63.43708000
  |   18: Species C            12.23980000       34.69809800       64.50811500
  |   19: Species C            14.48328900       34.80123100       65.63133500
  |   20: Species C             9.72137200       31.59183100       60.01772000
  |   21: Species H            10.78618400       31.16260200       61.82953400
  |   22: Species C             9.90654300       33.78709000       59.18524500
  |   23: Species H            11.10727400       35.14193800       60.32238100
  |   24: Species H             9.38643700       34.45364800       62.60535100
  |   25: Species C             9.54524800       35.46668400       64.45841500
  |   26: Species C            11.66277100       35.45808900       65.56672500
  |   27: Species C            14.61582600       34.04492200       66.79928500
  |   28: Species C            15.15737900       36.02654800       65.49714500
  |   29: Species H             9.32438300       30.57805900       59.95211600
  |   30: Species C             9.39522200       32.51143400       59.07590500
  |   31: Species H             9.66245300       34.54094300       58.43750900
  |   32: Species H             8.50266600       35.78209900       64.44748100
  |   33: Species C            10.36234000       35.83133200       65.53939000
  |   34: Species H            12.29880700       35.73409300       66.40715200
  |   35: Species C            13.93406200       32.80364400       66.96329500
  |   36: Species C            15.42629000       34.52620900       67.87777500
  |   37: Species C            15.02827700       36.83565100       64.32671000
  |   38: Species C            15.99166300       36.50046900       66.56569500
  |   39: Species H             8.74401900       32.24991800       58.24119400
  |   40: Species H             9.94274700       36.41796200       66.35621000
  |   41: Species H            13.31255100       32.44353800       66.14523300
  |   42: Species C            14.04820200       32.08539600       68.10142500
  |   43: Species C            15.49412100       33.73920700       69.06063500
  |   44: Species C            16.10540800       35.75398300       67.75352500
  |   45: Species H            14.38552700       36.47824600       63.52231600
  |   46: Species C            15.67273100       38.00940200       64.20494500
  |   47: Species C            16.67276400       37.74911400       66.37683500
  |   48: Species H            13.51639000       31.13755500       68.19908600
  |   49: Species C            14.83153900       32.55931700       69.16003500
  |   50: Species H            16.09431500       34.09636600       69.89460100
  |   51: Species C            16.93452600       36.28192500       68.87177500
  |   52: Species H            15.55156300       38.61334300       63.30835700
  |   53: Species C            16.50820700       38.46490600       65.25113000
  |   54: Species H            17.31024600       38.12149800       67.17725400
  |   55: Species H            14.90740900       31.97858000       70.07849100
  |   56: Species C            16.49230800       37.34886000       69.63964000
  |   57: Species C            18.16431000       35.73802100       69.17494500
  |   58: Species H            17.02297500       39.41876300       65.13980200
  |   59: Species H            15.51824600       37.79196300       69.43139700
  |   60: Species C            17.28106600       37.87066300       70.65352000
  |   61: Species H            18.53523300       34.89085800       68.59469800
  |   62: Species C            18.95703700       36.26719200       70.20373500
  |   63: Species H            16.91724900       38.72138700       71.23103400
  |   64: Species C            18.50357200       37.33044300       70.92935500
  |   65: Species H            19.92637600       35.81721300       70.41843900
  |   66: Species H            19.11521900       37.74874600       71.73101600
  |

  | The smallest distance between any two atoms is         1.08779349 AA.
  |
  | The first atom of this pair is atom number                     43 .
  | The second atom of this pair is atom number                    50 .

  Number of empty states per atom not set in control.in - providing a guess from actual geometry.
  | Total number of empty states used during s.c.f. cycle:      159
  If you use a very high smearing, use empty_states (per atom!) in control.in to increase this value.

  Structure-dependent array size parameters: 
  | Maximum number of distinct radial functions  :       18
  | Maximum number of basis functions            :     1950
  | Number of Kohn-Sham states (occupied + empty):      292
------------------------------------------------------------

------------------------------------------------------------
          Preparing all fixed parts of the calculation.
------------------------------------------------------------
  Determining machine precision:
    2.225073858507201E-308
  Setting up grids for atomic and cluster calculations.

  Creating wave function, potential, and density for free atoms.

  Species: H

  List of occupied orbitals and eigenvalues:
    n    l              occ      energy [Ha]    energy [eV]
    1    0           1.0000        -0.238386        -6.4868


  Species: C

  List of occupied orbitals and eigenvalues:
    n    l              occ      energy [Ha]    energy [eV]
    1    0           2.0000       -10.049212      -273.4530
    2    0           2.0000        -0.504761       -13.7352
    2    1           2.0000        -0.193631        -5.2690

  Creating fixed part of basis set: Ionic, confined, hydrogenic.
 
  H                    hydrogenic:
 
  List of hydrogenic basis orbitals: 
    n    l      effective z      eigenvalue [eV]  inner max. [A]     outer max. [A]     outer radius [A]   
    2    0         2.100000       -14.9965           0.193243           1.317208           5.373006
    2    1         3.500000       -41.6672           0.602369           0.602369           4.056063
    1    0         0.850000        -9.8292           0.624871           0.624871           5.373006
    2    1         3.700000       -46.5653           0.573622           0.573622           3.910002
    2    0         1.200000        -4.5995           0.334980           2.228188           5.505995
    3    2         7.000000       -74.0753           0.680699           0.680699           3.769201
 
 
  C                    hydrogenic:
 
  List of hydrogenic basis orbitals: 
    n    l      effective z      eigenvalue [eV]  inner max. [A]     outer max. [A]     outer radius [A]   
    2    1         1.700000        -9.8152           1.245706           1.245706           5.401630
    3    2         6.000000       -54.4226           0.792453           0.792453           4.178599
    2    0         4.900000       -81.6681           0.082559           0.562749           3.353238
    4    3         9.800000       -81.6681           0.863254           0.863254           4.028125
    3    1         5.200000       -40.8774           0.305389           1.215618           4.898362
    3    0         4.300000       -27.9508           0.091041           1.610311           5.401630
    5    4        14.400000      -112.8510           0.917666           0.917666           3.883070
    3    2         6.200000       -58.1113           0.763917           0.763917           4.077671
 

  Adding cutoff potential to free-atom effective potential.
  Creating atomic-like basis functions for current effective potential.

  Species H                   :

  List of atomic basis orbitals and eigenvalues:
    n    l      energy [Ha]    energy [eV]    outer radius [A]
    1    0        -0.238386        -6.4868       5.373006


  Species C                   :

  List of atomic basis orbitals and eigenvalues:
    n    l      energy [Ha]    energy [eV]    outer radius [A]
    1    0       -10.049212      -273.4530       1.934409
    2    0        -0.504761       -13.7352       5.271162
    2    1        -0.193631        -5.2690       5.401630

  Assembling full basis from fixed parts.
  | Species H :   atomic orbital   1 s accepted.
  | Species H :    hydro orbital   2 s accepted.
  | Species H :    hydro orbital   1 s accepted.
  | Species H :    hydro orbital   2 s accepted.
  | Species H :    hydro orbital   2 p accepted.
  | Species H :    hydro orbital   2 p accepted.
  | Species H :    hydro orbital   3 d accepted.
  | Species C :   atomic orbital   1 s accepted.
  | Species C :    hydro orbital   2 s accepted.
  | Species C :   atomic orbital   2 s accepted.
  | Species C :    hydro orbital   3 s accepted.
  | Species C :    hydro orbital   3 p accepted.
  | Species C :   atomic orbital   2 p accepted.
  | Species C :    hydro orbital   2 p accepted.
  | Species C :    hydro orbital   3 d accepted.
  | Species C :    hydro orbital   3 d accepted.
  | Species C :    hydro orbital   4 f accepted.
  | Species C :    hydro orbital   5 g accepted.
 
  Basis size parameters after reduction:
  | Total number of radial functions:       18
  | Total number of basis functions :     1950
 
  Per-task memory consumption for arrays in subroutine allocate_ext:
  |           4.458736MB.
  Testing on-site integration grid accuracy.
  |  Species  Function  <phi|h_atom|phi> (log., in eV)  <phi|h_atom|phi> (rad., in eV)
           1        1                 -6.4870767962                 -6.4871688290
           1        2                 13.5032046589                 13.5028982997
           1        3                 32.8195184817                 32.8119941656
           1        4                 33.8513856511                 33.7670005767 ***
           1        5                 28.8544614965                 28.8544615203
           1        6                 59.6326952547                 59.6327656460
           1        7                 60.2719308513                 60.2719305949
           2        8               -273.4529726040               -273.4529710464
           2        9                -10.7721037319                -10.7721022101
           2       10                 17.6044132601                 17.6044162063
           2       11                 53.7706460658                 53.7706913770
           2       12                 15.0973290362                 15.0973256030
           2       13                  3.8545134692                  3.8545724687
           2       14                 12.1156992592                 12.1182024431
           2       15                 29.4352039302                 29.4352041816
           2       16                 54.8741144708                 54.8740268729
           2       17                 59.3556032049                 59.3556031382
           2       18                 93.4551837154                 93.4551838009
 * Note: Onsite integrals marked "***" above are less accurate than
 * onsite_accuracy_threshold =    0.03000 eV. Usually, this is harmless.
 * When in doubt, tighten the "radial" and/or "radial_multiplier" flags to check.

  Preparing densities etc. for the partition functions (integrals / Hartree potential).

  Preparations completed.
  max(cpu_time)          :      0.197 s.
  Wall clock time (cpu1) :      0.210 s.
------------------------------------------------------------

------------------------------------------------------------
          Begin self-consistency loop: Initialization.

          Date     :  20210620, Time     :  172653.443
------------------------------------------------------------

  Initializing index lists of integration centers etc. from given atomic structure:
  | Number of centers in hartree potential         :        66
  | Number of centers in hartree multipole         :        66
  | Number of centers in electron density summation:        66
  | Number of centers in basis integrals           :        66
  | Number of centers in integrals                 :        66
  | Number of centers in hamiltonian               :        66
  * Using 56 tasks for Scalapack Eigenvalue solver.
  Detailed listing of tasks and assigned k-points:
  (for non-periodic systems, the "k-point" denotes an internal label only)
   Task     0 k-point     1 on d001
   Task     1 k-point     1 on d001
   Task     2 k-point     1 on d001
   Task     3 k-point     1 on d001
   Task     4 k-point     1 on d001
   Task     5 k-point     1 on d001
   Task     6 k-point     1 on d001
   Task     7 k-point     1 on d001
   Task     8 k-point     1 on d001
   Task     9 k-point     1 on d001
   Task    10 k-point     1 on d001
   Task    11 k-point     1 on d001
   Task    12 k-point     1 on d001
   Task    13 k-point     1 on d001
   Task    14 k-point     1 on d001
   Task    15 k-point     1 on d001
   Task    16 k-point     1 on d001
   Task    17 k-point     1 on d001
   Task    18 k-point     1 on d001
   Task    19 k-point     1 on d001
   Task    20 k-point     1 on d001
   Task    21 k-point     1 on d001
   Task    22 k-point     1 on d001
   Task    23 k-point     1 on d001
   Task    24 k-point     1 on d001
   Task    25 k-point     1 on d001
   Task    26 k-point     1 on d001
   Task    27 k-point     1 on d001
   Task    28 k-point     1 on d001
   Task    29 k-point     1 on d001
   Task    30 k-point     1 on d001
   Task    31 k-point     1 on d001
   Task    32 k-point     1 on d001
   Task    33 k-point     1 on d001
   Task    34 k-point     1 on d001
   Task    35 k-point     1 on d001
   Task    36 k-point     1 on d001
   Task    37 k-point     1 on d001
   Task    38 k-point     1 on d001
   Task    39 k-point     1 on d001
   Task    40 k-point     1 on d001
   Task    41 k-point     1 on d001
   Task    42 k-point     1 on d001
   Task    43 k-point     1 on d001
   Task    44 k-point     1 on d001
   Task    45 k-point     1 on d001
   Task    46 k-point     1 on d001
   Task    47 k-point     1 on d001
   Task    48 k-point     1 on d001
   Task    49 k-point     1 on d001
   Task    50 k-point     1 on d001
   Task    51 k-point     1 on d001
   Task    52 k-point     1 on d001
   Task    53 k-point     1 on d001
   Task    54 k-point     1 on d001
   Task    55 k-point     1 on d001
  Tasks:    56 split into      8 X      7 BLACS grid
  Calculating block size based on n_basis =         1950 max_nprow =            8 max_npcol =            7
  ScaLAPACK block size set to:           16
  Allocating        0.590 MB for ovlp
  Allocating        0.590 MB for ham
  Allocating        0.590 MB for eigenvec
  Required Scalapack workspace - INTEGER:            1 REAL:             1
  Partitioning the integration grid into batches with parallel hashing+maxmin method.
  | Number of batches:     9789
  | Maximal batch size:     200
  | Minimal batch size:      27
  | Average batch size:     112.250
  | Standard deviation of batch sizes:      38.089

  Integration load balanced across     56 MPI tasks.
  Work distribution over tasks is as follows:
  Task      0 has      19748 integration points.
  Task      1 has      19656 integration points.
  Task      2 has      19569 integration points.
  Task      3 has      19688 integration points.
  Task      4 has      19543 integration points.
  Task      5 has      19606 integration points.
  Task      6 has      19598 integration points.
  Task      7 has      19705 integration points.
  Task      8 has      19588 integration points.
  Task      9 has      19583 integration points.
  Task     10 has      19682 integration points.
  Task     11 has      19576 integration points.
  Task     12 has      19624 integration points.
  Task     13 has      19616 integration points.
  Task     14 has      19715 integration points.
  Task     15 has      19626 integration points.
  Task     16 has      19586 integration points.
  Task     17 has      19678 integration points.
  Task     18 has      19611 integration points.
  Task     19 has      19623 integration points.
  Task     20 has      19560 integration points.
  Task     21 has      19651 integration points.
  Task     22 has      19638 integration points.
  Task     23 has      19569 integration points.
  Task     24 has      19633 integration points.
  Task     25 has      19617 integration points.
  Task     26 has      19610 integration points.
  Task     27 has      19555 integration points.
  Task     28 has      19696 integration points.
  Task     29 has      19662 integration points.
  Task     30 has      19641 integration points.
  Task     31 has      19632 integration points.
  Task     32 has      19590 integration points.
  Task     33 has      19614 integration points.
  Task     34 has      19569 integration points.
  Task     35 has      19795 integration points.
  Task     36 has      19684 integration points.
  Task     37 has      19507 integration points.
  Task     38 has      19623 integration points.
  Task     39 has      19562 integration points.
  Task     40 has      19614 integration points.
  Task     41 has      19570 integration points.
  Task     42 has      19704 integration points.
  Task     43 has      19689 integration points.
  Task     44 has      19536 integration points.
  Task     45 has      19678 integration points.
  Task     46 has      19605 integration points.
  Task     47 has      19722 integration points.
  Task     48 has      19488 integration points.
  Task     49 has      19649 integration points.
  Task     50 has      19642 integration points.
  Task     51 has      19577 integration points.
  Task     52 has      19714 integration points.
  Task     53 has      19499 integration points.
  Task     54 has      19618 integration points.
  Task     55 has      19486 integration points.
  Initializing partition tables, free-atom densities, potentials, etc. across the integration grid (initialize_grid_storage).
  | initialize_grid_storage: Actual outermost partition radius vs. multipole_radius_free
  | (-- VB: in principle, multipole_radius_free should be larger, hence this output)
  | Species        1: Confinement radius =              6.000000000000000 AA, multipole_radius_free =              6.071692442739658 AA.
  | Species        1: outer_partition_radius set to              6.071692442739658 AA .
  | Species        2: Confinement radius =              6.000000000000000 AA, multipole_radius_free =              6.029870734432609 AA.
  | Species        2: outer_partition_radius set to              6.029870734432609 AA .
  | The sparse table of interatomic distances needs     51.0280 kbyte instead of    34.8480 kbyte of memory.
  | Using the partition_type stratmann_smoother will reduce your memory usage.
  | Net number of integration points:  1098820
  | of which are non-zero points    :   865219
  Renormalizing the initial density to the exact electron count on the 3D integration grid.
  | Initial density: Formal number of electrons (from input files) :     266.0000000000
  | Integrated number of electrons on 3D grid     :     265.9998204944
  | Charge integration error                      :      -0.0001795056
  | Normalization factor for density and gradient :       1.0000006748
  Obtaining max. number of non-zero basis functions in each batch (get_n_compute_maxes).
  | Maximal number of non-zero basis functions:     1117
  Selecting the method for density update.
  Loop over occupied states selected for charge density update.
  Hamiltonian matrix size:
  | Size of matrix non-packed:               1902225
  | Size of matrix packed:         1546547
  Allocating        4.555 MB for KS_eigenvector
  use_local_index: Max. local matrix size =      1060238
  Task:     0 matrix size:     115440
  Task:     1 matrix size:     218739
  Task:     2 matrix size:     257191
  Task:     3 matrix size:     386858
  Task:     4 matrix size:     484377
  Task:     5 matrix size:     653518
  Task:     6 matrix size:     788246
  Task:     7 matrix size:     481886
  Task:     8 matrix size:     274262
  Task:     9 matrix size:     542292
  Task:    10 matrix size:     449916
  Task:    11 matrix size:     848508
  Task:    12 matrix size:     289683
  Task:    13 matrix size:     807355
  Task:    14 matrix size:     449751
  Task:    15 matrix size:     275995
  Task:    16 matrix size:     423441
  Task:    17 matrix size:     874822
  Task:    18 matrix size:    1003837
  Task:    19 matrix size:     482125
  Task:    20 matrix size:     676046
  Task:    21 matrix size:     925557
  Task:    22 matrix size:     911535
  Task:    23 matrix size:     535111
  Task:    24 matrix size:    1029407
  Task:    25 matrix size:     920465
  Task:    26 matrix size:     681074
  Task:    27 matrix size:     430221
  Task:    28 matrix size:     876736
  Task:    29 matrix size:     754665
  Task:    30 matrix size:    1034358
  Task:    31 matrix size:     514702
  Task:    32 matrix size:     536009
  Task:    33 matrix size:     352150
  Task:    34 matrix size:     624868
  Task:    35 matrix size:     204747
  Task:    36 matrix size:     730015
  Task:    37 matrix size:     745628
  Task:    38 matrix size:    1060238
  Task:    39 matrix size:     929322
  Task:    40 matrix size:     866455
  Task:    41 matrix size:     633652
  Task:    42 matrix size:     850349
  Task:    43 matrix size:     898276
  Task:    44 matrix size:     717750
  Task:    45 matrix size:     348121
  Task:    46 matrix size:     403925
  Task:    47 matrix size:     404605
  Task:    48 matrix size:     192504
  Task:    49 matrix size:     658047
  Task:    50 matrix size:     426327
  Task:    51 matrix size:     313770
  Task:    52 matrix size:     342479
  Task:    53 matrix size:     193129
  Task:    54 matrix size:     218765
  Task:    55 matrix size:     100128
  Integrating Hamiltonian matrix: batch-based integration.
  Time summed over all CPUs for integration: real work      229.106 s, elapsed      501.143 s
  Time get_set_sparse_local_matrix_scalapack:     0.021393 s
  Start compute_balanced_batch_distribution
  Done load balancing, time needed:      0.011 s
  Integrating overlap matrix with loadbalancing
  Time summed over all CPUs for integration: real work       67.441 s, elapsed       77.844 s
  Time get_set_full_local_matrix_scalapack:     0.025189 s

  Updating Kohn-Sham eigenvalues and eigenvectors using ELSI and the ELPA eigensolver.
  Overlap matrix is not singular
  | Lowest and highest eigenvalues :  0.13E+02,  0.85E-04
  Finished singularity check of overlap matrix
  | Time :     0.145 s
  Finished Cholesky decomposition
  | Time :     0.031 s
  Finished transformation to standard eigenproblem
  | Time :     0.029 s
  Starting ELPA eigensolver
  Finished solving standard eigenproblem
  | Time :     0.155 s
  Finished back-transformation of eigenvectors
  | Time :     0.007 s

  Obtaining occupation numbers and chemical potential using ELSI.
  | Chemical potential (Fermi level):    -8.11002707 eV
  Writing Kohn-Sham eigenvalues.

  State    Occupation    Eigenvalue [Ha]    Eigenvalue [eV]
      1       2.00000         -10.178894         -276.98180
      2       2.00000         -10.178406         -276.96853
      3       2.00000         -10.177687         -276.94895
      4       2.00000         -10.176330         -276.91203
      5       2.00000         -10.176073         -276.90505
      6       2.00000         -10.175986         -276.90268
      7       2.00000         -10.175785         -276.89720
      8       2.00000         -10.175597         -276.89208
      9       2.00000         -10.175305         -276.88412
     10       2.00000         -10.174967         -276.87495
     11       2.00000         -10.174922         -276.87371
     12       2.00000         -10.174908         -276.87332
     13       2.00000         -10.174905         -276.87326
     14       2.00000         -10.173247         -276.82814
     15       2.00000         -10.173206         -276.82703
     16       2.00000         -10.173179         -276.82627
     17       2.00000         -10.172832         -276.81685
     18       2.00000         -10.172774         -276.81527
     19       2.00000         -10.172722         -276.81386
     20       2.00000         -10.172588         -276.81020
     21       2.00000         -10.172405         -276.80521
     22       2.00000         -10.172241         -276.80075
     23       2.00000         -10.172176         -276.79899
     24       2.00000         -10.171672         -276.78527
     25       2.00000         -10.171598         -276.78327
     26       2.00000         -10.171081         -276.76918
     27       2.00000         -10.169942         -276.73820
     28       2.00000         -10.168984         -276.71214
     29       2.00000         -10.166786         -276.65231
     30       2.00000         -10.166377         -276.64119
     31       2.00000         -10.166049         -276.63227
     32       2.00000         -10.165472         -276.61658
     33       2.00000         -10.164889         -276.60070
     34       2.00000         -10.164861         -276.59995
     35       2.00000         -10.164588         -276.59252
     36       2.00000         -10.163537         -276.56390
     37       2.00000         -10.162271         -276.52947
     38       2.00000         -10.161103         -276.49769
     39       2.00000         -10.161065         -276.49665
     40       2.00000         -10.160762         -276.48839
     41       2.00000          -1.022195          -27.81534
     42       2.00000          -1.015560          -27.63478
     43       2.00000          -1.006454          -27.38700
     44       2.00000          -1.001962          -27.26478
     45       2.00000          -0.991262          -26.97360
     46       2.00000          -0.990723          -26.95896
     47       2.00000          -0.953835          -25.95518
     48       2.00000          -0.947163          -25.77363
     49       2.00000          -0.941603          -25.62232
     50       2.00000          -0.916828          -24.94815
     51       2.00000          -0.895063          -24.35590
     52       2.00000          -0.894644          -24.34449
     53       2.00000          -0.892782          -24.29384
     54       2.00000          -0.891414          -24.25660
     55       2.00000          -0.888920          -24.18876
     56       2.00000          -0.885678          -24.10052
     57       2.00000          -0.879333          -23.92787
     58       2.00000          -0.878690          -23.91038
     59       2.00000          -0.858706          -23.36658
     60       2.00000          -0.839466          -22.84305
     61       2.00000          -0.794137          -21.60958
     62       2.00000          -0.785709          -21.38024
     63       2.00000          -0.772011          -21.00748
     64       2.00000          -0.770638          -20.97012
     65       2.00000          -0.768539          -20.91300
     66       2.00000          -0.756613          -20.58849
     67       2.00000          -0.754439          -20.52934
     68       2.00000          -0.753111          -20.49318
     69       2.00000          -0.735557          -20.01554
     70       2.00000          -0.735104          -20.00320
     71       2.00000          -0.729333          -19.84616
     72       2.00000          -0.708532          -19.28014
     73       2.00000          -0.687593          -18.71035
     74       2.00000          -0.683420          -18.59681
     75       2.00000          -0.675982          -18.39441
     76       2.00000          -0.674903          -18.36505
     77       2.00000          -0.670204          -18.23718
     78       2.00000          -0.665408          -18.10667
     79       2.00000          -0.650949          -17.71323
     80       2.00000          -0.639023          -17.38870
     81       2.00000          -0.635687          -17.29792
     82       2.00000          -0.635510          -17.29310
     83       2.00000          -0.621165          -16.90277
     84       2.00000          -0.618071          -16.81857
     85       2.00000          -0.617915          -16.81432
     86       2.00000          -0.616849          -16.78532
     87       2.00000          -0.603512          -16.42238
     88       2.00000          -0.602790          -16.40275
     89       2.00000          -0.592026          -16.10986
     90       2.00000          -0.579419          -15.76678
     91       2.00000          -0.579203          -15.76092
     92       2.00000          -0.577831          -15.72359
     93       2.00000          -0.576242          -15.68034
     94       2.00000          -0.574374          -15.62951
     95       2.00000          -0.573616          -15.60888
     96       2.00000          -0.571365          -15.54764
     97       2.00000          -0.567881          -15.45282
     98       2.00000          -0.567596          -15.44508
     99       2.00000          -0.565899          -15.39889
    100       2.00000          -0.563681          -15.33853
    101       2.00000          -0.550367          -14.97625
    102       2.00000          -0.529131          -14.39838
    103       2.00000          -0.528650          -14.38531
    104       2.00000          -0.527741          -14.36055
    105       2.00000          -0.527595          -14.35658
    106       2.00000          -0.514292          -13.99459
    107       2.00000          -0.513116          -13.96259
    108       2.00000          -0.511581          -13.92082
    109       2.00000          -0.510197          -13.88317
    110       2.00000          -0.503321          -13.69607
    111       2.00000          -0.503006          -13.68750
    112       2.00000          -0.502491          -13.67348
    113       2.00000          -0.499743          -13.59871
    114       2.00000          -0.498592          -13.56737
    115       2.00000          -0.497997          -13.55119
    116       2.00000          -0.497888          -13.54822
    117       2.00000          -0.497279          -13.53164
    118       2.00000          -0.489604          -13.32282
    119       2.00000          -0.474529          -12.91258
    120       2.00000          -0.449838          -12.24072
    121       2.00000          -0.449608          -12.23446
    122       2.00000          -0.437124          -11.89476
    123       2.00000          -0.435666          -11.85508
    124       2.00000          -0.412744          -11.23133
    125       2.00000          -0.410879          -11.18057
    126       2.00000          -0.409599          -11.14576
    127       2.00000          -0.407391          -11.08567
    128       2.00000          -0.404340          -11.00266
    129       2.00000          -0.401794          -10.93338
    130       2.00000          -0.396396          -10.78650
    131       2.00000          -0.393709          -10.71337
    132       2.00000          -0.354317           -9.64146
    133       2.00000          -0.353396           -9.61638
    134       0.00000          -0.265071           -7.21294
    135       0.00000          -0.264740           -7.20393
    136       0.00000          -0.223099           -6.07082
    137       0.00000          -0.218962           -5.95826
    138       0.00000          -0.213581           -5.81182
    139       0.00000          -0.212025           -5.76951
    140       0.00000          -0.210845           -5.73739
    141       0.00000          -0.208638           -5.67734
    142       0.00000          -0.201443           -5.48154
    143       0.00000          -0.200575           -5.45793
    144       0.00000          -0.171073           -4.65514
    145       0.00000          -0.169351           -4.60826
    146       0.00000          -0.150849           -4.10480
    147       0.00000          -0.150487           -4.09497
    148       0.00000          -0.079885           -2.17378
    149       0.00000          -0.075460           -2.05337
    150       0.00000          -0.070808           -1.92679
    151       0.00000          -0.070022           -1.90540
    152       0.00000          -0.069417           -1.88893
    153       0.00000          -0.068722           -1.87003
    154       0.00000          -0.067046           -1.82441
    155       0.00000          -0.066694           -1.81483
    156       0.00000          -0.059714           -1.62490
    157       0.00000          -0.059398           -1.61629
    158       0.00000          -0.052974           -1.44150
    159       0.00000          -0.052357           -1.42471
    160       0.00000          -0.042837           -1.16566
    161       0.00000          -0.040101           -1.09119
    162       0.00000          -0.037120           -1.01007
    163       0.00000          -0.032722           -0.89041
    164       0.00000          -0.032426           -0.88235
    165       0.00000          -0.030374           -0.82652
    166       0.00000          -0.027413           -0.74595
    167       0.00000          -0.023232           -0.63218
    168       0.00000          -0.022924           -0.62378
    169       0.00000          -0.016964           -0.46160
    170       0.00000          -0.012478           -0.33954
    171       0.00000          -0.008659           -0.23564
    172       0.00000          -0.006865           -0.18682
    173       0.00000          -0.005645           -0.15360
    174       0.00000          -0.002559           -0.06962
    175       0.00000          -0.000784           -0.02133
    176       0.00000           0.003663            0.09968
    177       0.00000           0.004815            0.13103
    178       0.00000           0.006344            0.17264
    179       0.00000           0.013241            0.36031
    180       0.00000           0.018076            0.49187
    181       0.00000           0.019092            0.51951
    182       0.00000           0.019647            0.53463
    183       0.00000           0.022467            0.61137
    184       0.00000           0.023535            0.64043
    185       0.00000           0.024965            0.67933
    186       0.00000           0.028272            0.76931
    187       0.00000           0.031778            0.86471
    188       0.00000           0.045229            1.23074
    189       0.00000           0.046813            1.27383
    190       0.00000           0.049271            1.34075
    191       0.00000           0.050575            1.37622
    192       0.00000           0.052988            1.44188
    193       0.00000           0.054180            1.47431
    194       0.00000           0.055779            1.51783
    195       0.00000           0.059220            1.61146
    196       0.00000           0.060426            1.64429
    197       0.00000           0.061303            1.66814
    198       0.00000           0.062517            1.70116
    199       0.00000           0.063225            1.72045
    200       0.00000           0.064423            1.75303
    201       0.00000           0.065270            1.77610
    202       0.00000           0.067116            1.82631
    203       0.00000           0.069244            1.88421
    204       0.00000           0.070855            1.92806
    205       0.00000           0.073900            2.01091
    206       0.00000           0.076518            2.08216
    207       0.00000           0.079005            2.14983
    208       0.00000           0.079942            2.17533
    209       0.00000           0.080944            2.20259
    210       0.00000           0.082752            2.25179
    211       0.00000           0.085307            2.32133
    212       0.00000           0.087334            2.37649
    213       0.00000           0.087823            2.38978
    214       0.00000           0.092699            2.52246
    215       0.00000           0.094613            2.57456
    216       0.00000           0.096123            2.61564
    217       0.00000           0.096743            2.63252
    218       0.00000           0.096919            2.63730
    219       0.00000           0.101445            2.76047
    220       0.00000           0.106332            2.89345
    221       0.00000           0.108592            2.95494
    222       0.00000           0.110705            3.01244
    223       0.00000           0.113062            3.07658
    224       0.00000           0.116231            3.16282
    225       0.00000           0.117381            3.19409
    226       0.00000           0.119785            3.25951
    227       0.00000           0.120733            3.28532
    228       0.00000           0.122552            3.33481
    229       0.00000           0.123481            3.36008
    230       0.00000           0.127844            3.47882
    231       0.00000           0.129232            3.51658
    232       0.00000           0.131515            3.57870
    233       0.00000           0.131889            3.58887
    234       0.00000           0.135640            3.69096
    235       0.00000           0.137092            3.73046
    236       0.00000           0.138274            3.76264
    237       0.00000           0.138851            3.77832
    238       0.00000           0.143675            3.90960
    239       0.00000           0.144568            3.93390
    240       0.00000           0.145446            3.95780
    241       0.00000           0.148853            4.05049
    242       0.00000           0.150647            4.09930
    243       0.00000           0.152771            4.15712
    244       0.00000           0.157653            4.28996
    245       0.00000           0.157925            4.29735
    246       0.00000           0.159873            4.35037
    247       0.00000           0.160433            4.36561
    248       0.00000           0.164027            4.46340
    249       0.00000           0.165807            4.51183
    250       0.00000           0.167890            4.56852
    251       0.00000           0.169376            4.60896
    252       0.00000           0.174486            4.74800
    253       0.00000           0.175161            4.76638
    254       0.00000           0.176087            4.79156
    255       0.00000           0.178307            4.85197
    256       0.00000           0.179660            4.88881
    257       0.00000           0.185979            5.06075
    258       0.00000           0.186018            5.06182
    259       0.00000           0.188438            5.12765
    260       0.00000           0.189210            5.14865
    261       0.00000           0.190504            5.18387
    262       0.00000           0.191788            5.21883
    263       0.00000           0.192676            5.24298
    264       0.00000           0.195493            5.31965
    265       0.00000           0.195756            5.32680
    266       0.00000           0.207771            5.65373
    267       0.00000           0.208852            5.68316
    268       0.00000           0.210227            5.72056
    269       0.00000           0.212017            5.76929
    270       0.00000           0.213376            5.80627
    271       0.00000           0.216258            5.88468
    272       0.00000           0.217708            5.92414
    273       0.00000           0.218339            5.94131
    274       0.00000           0.219725            5.97901
    275       0.00000           0.223268            6.07543
    276       0.00000           0.223817            6.09038
    277       0.00000           0.225483            6.13569
    278       0.00000           0.229479            6.24445
    279       0.00000           0.233865            6.36380
    280       0.00000           0.235610            6.41127
    281       0.00000           0.238859            6.49968
    282       0.00000           0.245581            6.68259
    283       0.00000           0.248907            6.77312
    284       0.00000           0.253808            6.90646
    285       0.00000           0.254605            6.92815
    286       0.00000           0.255720            6.95848
    287       0.00000           0.260044            7.07614
    288       0.00000           0.261714            7.12159
    289       0.00000           0.266413            7.24947
    290       0.00000           0.268675            7.31103
    291       0.00000           0.271903            7.39885
    292       0.00000           0.273582            7.44454

  Highest occupied state (VBM) at     -9.61638112 eV
  | Occupation number:      2.00000000

  Lowest unoccupied state (CBM) at    -7.21294466 eV
  | Occupation number:      0.00000000

  Overall HOMO-LUMO gap:      2.40343646 eV.
  Calculating total energy contributions from superposition of free atom densities.

  Total energy components:
  | Sum of eigenvalues            :        -934.15242881 Ha      -25419.58092189 eV
  | XC energy correction          :        -221.18481617 Ha       -6018.74507843 eV
  | XC potential correction       :         284.11739701 Ha        7731.22773330 eV
  | Free-atom electrostatic energy:        -670.01183831 Ha      -18231.94975176 eV
  | Hartree energy correction     :           0.00000000 Ha           0.00000000 eV
  | Entropy correction            :           0.00000000 Ha           0.00000000 eV
  | ---------------------------
  | Total energy                  :       -1541.23168627 Ha      -41939.04801878 eV
  | Total energy, T -> 0          :       -1541.23168627 Ha      -41939.04801878 eV  <-- do not rely on this value for anything but (periodic) metals
  | Electronic free energy        :       -1541.23168627 Ha      -41939.04801878 eV

  Derived energy quantities:
  | Kinetic energy                :        1526.59708155 Ha       41540.82016261 eV
  | Electrostatic energy          :       -2846.64395165 Ha      -77461.12310296 eV
  | Energy correction for multipole
  | error in Hartree potential    :           0.00000000 Ha           0.00000000 eV
  | Sum of eigenvalues per atom                           :        -385.14516548 eV
  | Total energy (T->0) per atom                          :        -635.44012150 eV  <-- do not rely on this value for anything but (periodic) metals
  | Electronic free energy per atom                       :        -635.44012150 eV
  Initialize hartree_potential_storage
  Max. number of atoms included in rho_multipole:           66

  End scf initialization - timings             :  max(cpu_time)    wall_clock(cpu1)
  | Time for scf. initialization               :       13.393 s          13.454 s
  | Boundary condition initialization          :        0.001 s           0.003 s
  | Integration                                :       10.418 s          10.425 s
  | Solution of K.-S. eqns.                    :        0.390 s           0.409 s
  | Grid partitioning                          :        1.050 s           1.055 s
  | Preloading free-atom quantities on grid    :        0.014 s           0.016 s
  | Free-atom superposition energy             :        0.110 s           0.112 s
  | Total energy evaluation                    :        0.001 s           0.004 s

  Partial memory accounting:
  | Current value for overall tracked memory usage on task 0  :           6.787 MB
  | Peak value for overall tracked memory usage on task 0     :          33.804 MB after allocating zora_vector2
  | Largest tracked array allocation on task 0 so far         :           9.982 MB  when allocating hamiltonian_shell
  Note:  These values currently only include a subset of arrays which are explicitly tracked.
  The "true" memory usage will be greater.
------------------------------------------------------------

------------------------------------------------------------
          Begin self-consistency iteration #    1

  Date     :  20210620, Time     :  172706.900
------------------------------------------------------------
  Evaluating new KS density.
  Integration grid: deviation in total charge (<rho> - N_e) =   1.705303E-13
  Pulay mixing of updated and previous charge densities.

  Evaluating partitioned Hartree potential by multipole expansion.
  | Analytical far-field extrapolation by fixed multipoles:
  | Hartree multipole sum: apparent total charge =  -0.192813E-03
  Summing up the Hartree potential with load balancing.
  Time summed over all CPUs for potential: real work       43.459 s, elapsed       80.613 s
  | RMS charge density error from multipole expansion :   0.153641E-01

  Start compute_balanced_batch_distribution
  Done load balancing, time needed:      0.009 s
  Integrating Hamiltonian matrix: batch-based integration with load balancing
  Time summed over all CPUs for integration: real work      253.426 s, elapsed      274.853 s
  Time get_set_full_local_matrix_scalapack:     0.024989 s
  Start compute_balanced_batch_distribution
  Done load balancing, time needed:      0.010 s

  Updating Kohn-Sham eigenvalues and eigenvectors using ELSI and the ELPA eigensolver.
  Finished transformation to standard eigenproblem
  | Time :     0.032 s
  Starting ELPA eigensolver
  Finished solving standard eigenproblem
  | Time :     0.155 s
  Finished back-transformation of eigenvectors
  | Time :     0.007 s

  Obtaining occupation numbers and chemical potential using ELSI.
  | Chemical potential (Fermi level):    -5.62686454 eV
  Writing Kohn-Sham eigenvalues.

  State    Occupation    Eigenvalue [Ha]    Eigenvalue [eV]
      1       2.00000          -9.992184         -271.90117
      2       2.00000          -9.990852         -271.86492
      3       2.00000          -9.988497         -271.80084
      4       2.00000          -9.987358         -271.76983
      5       2.00000          -9.979997         -271.56953
      6       2.00000          -9.979135         -271.54607
      7       2.00000          -9.978733         -271.53515
      8       2.00000          -9.978132         -271.51879
      9       2.00000          -9.977734         -271.50795
     10       2.00000          -9.977682         -271.50654
     11       2.00000          -9.977072         -271.48994
     12       2.00000          -9.976323         -271.46957
     13       2.00000          -9.972208         -271.35758
     14       2.00000          -9.971233         -271.33104
     15       2.00000          -9.948687         -270.71756
     16       2.00000          -9.947212         -270.67742
     17       2.00000          -9.946353         -270.65403
     18       2.00000          -9.945391         -270.62785
     19       2.00000          -9.944985         -270.61680
     20       2.00000          -9.944803         -270.61185
     21       2.00000          -9.944788         -270.61145
     22       2.00000          -9.944390         -270.60062
     23       2.00000          -9.943294         -270.57078
     24       2.00000          -9.942754         -270.55612
     25       2.00000          -9.942671         -270.55385
     26       2.00000          -9.942563         -270.55089
     27       2.00000          -9.942019         -270.53610
     28       2.00000          -9.941444         -270.52045
     29       2.00000          -9.941041         -270.50949
     30       2.00000          -9.940939         -270.50672
     31       2.00000          -9.940034         -270.48209
     32       2.00000          -9.939465         -270.46661
     33       2.00000          -9.939375         -270.46415
     34       2.00000          -9.939055         -270.45546
     35       2.00000          -9.938508         -270.44056
     36       2.00000          -9.938464         -270.43935
     37       2.00000          -9.938288         -270.43457
     38       2.00000          -9.937718         -270.41907
     39       2.00000          -9.937575         -270.41517
     40       2.00000          -9.937041         -270.40065
     41       2.00000          -0.879917          -23.94376
     42       2.00000          -0.868331          -23.62848
     43       2.00000          -0.845721          -23.01324
     44       2.00000          -0.840862          -22.88102
     45       2.00000          -0.832560          -22.65511
     46       2.00000          -0.832029          -22.64065
     47       2.00000          -0.804882          -21.90194
     48       2.00000          -0.792840          -21.57429
     49       2.00000          -0.792514          -21.56541
     50       2.00000          -0.769051          -20.92694
     51       2.00000          -0.740922          -20.16151
     52       2.00000          -0.740172          -20.14110
     53       2.00000          -0.738193          -20.08725
     54       2.00000          -0.735885          -20.02444
     55       2.00000          -0.733488          -19.95921
     56       2.00000          -0.733273          -19.95339
     57       2.00000          -0.730025          -19.86498
     58       2.00000          -0.729635          -19.85438
     59       2.00000          -0.704795          -19.17845
     60       2.00000          -0.688715          -18.74089
     61       2.00000          -0.649723          -17.67987
     62       2.00000          -0.640568          -17.43074
     63       2.00000          -0.627287          -17.06934
     64       2.00000          -0.623801          -16.97450
     65       2.00000          -0.622153          -16.92964
     66       2.00000          -0.611322          -16.63491
     67       2.00000          -0.610570          -16.61444
     68       2.00000          -0.608826          -16.56699
     69       2.00000          -0.591815          -16.10409
     70       2.00000          -0.591486          -16.09515
     71       2.00000          -0.585692          -15.93748
     72       2.00000          -0.567176          -15.43363
     73       2.00000          -0.546188          -14.86254
     74       2.00000          -0.541882          -14.74535
     75       2.00000          -0.539079          -14.66908
     76       2.00000          -0.537991          -14.63948
     77       2.00000          -0.531535          -14.46381
     78       2.00000          -0.530514          -14.43601
     79       2.00000          -0.513020          -13.95999
     80       2.00000          -0.490861          -13.35702
     81       2.00000          -0.476600          -12.96894
     82       2.00000          -0.475889          -12.94961
     83       2.00000          -0.475494          -12.93885
     84       2.00000          -0.475138          -12.92917
     85       2.00000          -0.473377          -12.88124
     86       2.00000          -0.471981          -12.84325
     87       2.00000          -0.470294          -12.79734
     88       2.00000          -0.465593          -12.66944
     89       2.00000          -0.464766          -12.64693
     90       2.00000          -0.458361          -12.47265
     91       2.00000          -0.446201          -12.14176
     92       2.00000          -0.441536          -12.01481
     93       2.00000          -0.440342          -11.98232
     94       2.00000          -0.437132          -11.89496
     95       2.00000          -0.432822          -11.77769
     96       2.00000          -0.431938          -11.75364
     97       2.00000          -0.431049          -11.72943
     98       2.00000          -0.428065          -11.64825
     99       2.00000          -0.427441          -11.63125
    100       2.00000          -0.424050          -11.53898
    101       2.00000          -0.407539          -11.08970
    102       2.00000          -0.404817          -11.01564
    103       2.00000          -0.404252          -11.00027
    104       2.00000          -0.394058          -10.72286
    105       2.00000          -0.393566          -10.70948
    106       2.00000          -0.378790          -10.30739
    107       2.00000          -0.377753          -10.27918
    108       2.00000          -0.377063          -10.26041
    109       2.00000          -0.375059          -10.20587
    110       2.00000          -0.372813          -10.14476
    111       2.00000          -0.369932          -10.06637
    112       2.00000          -0.367662          -10.00459
[...]
    122       2.00000          -0.265983           -7.23776
    123       2.00000          -0.264084           -7.18609
    124       2.00000          -0.243073           -6.61436
    125       2.00000          -0.239134           -6.50717
    126       2.00000          -0.235704           -6.41382
    127       2.00000          -0.235050           -6.39602
    128       2.00000          -0.233827           -6.36276
    129       2.00000          -0.229042           -6.23254
    130       2.00000          -0.226920           -6.17480
    131       2.00000          -0.223765           -6.08896
    132       2.00000          -0.180587           -4.91403
    133       2.00000          -0.180074           -4.90006
    134       0.00000          -0.095049           -2.58642
    135       0.00000          -0.094953           -2.58381
    136       0.00000          -0.054725           -1.48915
    137       0.00000          -0.052278           -1.42255
    138       0.00000          -0.046526           -1.26605
    139       0.00000          -0.043931           -1.19544
    140       0.00000          -0.043185           -1.17511
    141       0.00000          -0.038280           -1.04165
    142       0.00000          -0.029708           -0.80839
    143       0.00000          -0.027948           -0.76051
    144       0.00000          -0.011985           -0.32613
    145       0.00000          -0.007191           -0.19569
    146       0.00000          -0.004324           -0.11766
    147       0.00000          -0.002843           -0.07737
    148       0.00000           0.002771            0.07541
    149       0.00000           0.005987            0.16292
    150       0.00000           0.006887            0.18741
    151       0.00000           0.010339            0.28134
    152       0.00000           0.015190            0.41334
    153       0.00000           0.015696            0.42711
    154       0.00000           0.018933            0.51518
    155       0.00000           0.021293            0.57941
    156       0.00000           0.021994            0.59848
    157       0.00000           0.022652            0.61638
    158       0.00000           0.029136            0.79283
    159       0.00000           0.032016            0.87119
    160       0.00000           0.034100            0.92790
    161       0.00000           0.040685            1.10711
    162       0.00000           0.044245            1.20396
    163       0.00000           0.047324            1.28775
    164       0.00000           0.048540            1.32083
    165       0.00000           0.050276            1.36808
    166       0.00000           0.061825            1.68235
    167       0.00000           0.063354            1.72395
    168       0.00000           0.065294            1.77674
    169       0.00000           0.066330            1.80493
    170       0.00000           0.081570            2.21964
    171       0.00000           0.082365            2.24126
    172       0.00000           0.087679            2.38587
    173       0.00000           0.089060            2.42344
    174       0.00000           0.096869            2.63594
    175       0.00000           0.097648            2.65714
    176       0.00000           0.103262            2.80989
    177       0.00000           0.103818            2.82502
    178       0.00000           0.107345            2.92100
    179       0.00000           0.111306            3.02879
    180       0.00000           0.114318            3.11075
    181       0.00000           0.115346            3.13873
    182       0.00000           0.116015            3.15693
    183       0.00000           0.128796            3.50472
    184       0.00000           0.132976            3.61846
    185       0.00000           0.137740            3.74810
    186       0.00000           0.140675            3.82796
    187       0.00000           0.140836            3.83235
    188       0.00000           0.145257            3.95265
    189       0.00000           0.145852            3.96882
    190       0.00000           0.146841            3.99576
    191       0.00000           0.149360            4.06430
    192       0.00000           0.150102            4.08449
    193       0.00000           0.150881            4.10568
    194       0.00000           0.154798            4.21226
    195       0.00000           0.158819            4.32167
    196       0.00000           0.160594            4.36998
    197       0.00000           0.162324            4.41706
    198       0.00000           0.163975            4.46200
    199       0.00000           0.165928            4.51512
    200       0.00000           0.167103            4.54710
    201       0.00000           0.171708            4.67242
    202       0.00000           0.172359            4.69014
    203       0.00000           0.172826            4.70283
    204       0.00000           0.178481            4.85673
    205       0.00000           0.180039            4.89910
    206       0.00000           0.182875            4.97628
    207       0.00000           0.183389            4.99026
    208       0.00000           0.185461            5.04664
    209       0.00000           0.187120            5.09178
    210       0.00000           0.188526            5.13005
    211       0.00000           0.193587            5.26776
    212       0.00000           0.196674            5.35178
    213       0.00000           0.198649            5.40552
    214       0.00000           0.198832            5.41049
    215       0.00000           0.200882            5.46629
    216       0.00000           0.204117            5.55431
    217       0.00000           0.205324            5.58716
    218       0.00000           0.206310            5.61399
    219       0.00000           0.207014            5.63313
    220       0.00000           0.214370            5.83330
    221       0.00000           0.214825            5.84568
    222       0.00000           0.217532            5.91934
    223       0.00000           0.219768            5.98018
    224       0.00000           0.220870            6.01017
    225       0.00000           0.224426            6.10695
    226       0.00000           0.225387            6.13309
    227       0.00000           0.225797            6.14426
    228       0.00000           0.228082            6.20642
    229       0.00000           0.231344            6.29518
    230       0.00000           0.232936            6.33850
    231       0.00000           0.233117            6.34344
    232       0.00000           0.236251            6.42871
    233       0.00000           0.237663            6.46713
    234       0.00000           0.240000            6.53074
    235       0.00000           0.240544            6.54554
    236       0.00000           0.243257            6.61935
    237       0.00000           0.247435            6.73305
    238       0.00000           0.249738            6.79571
    239       0.00000           0.250131            6.80640
    240       0.00000           0.250891            6.82709
    241       0.00000           0.252748            6.87764
    242       0.00000           0.256013            6.96647
    243       0.00000           0.259314            7.05629
    244       0.00000           0.261879            7.12609
    245       0.00000           0.264460            7.19634
    246       0.00000           0.268203            7.29817
    247       0.00000           0.270256            7.35403
    248       0.00000           0.271103            7.37710
    249       0.00000           0.272711            7.42083
    250       0.00000           0.273532            7.44319
    251       0.00000           0.273702            7.44780
    252       0.00000           0.280199            7.62460
    253       0.00000           0.282954            7.69958
    254       0.00000           0.285907            7.77993
    255       0.00000           0.286747            7.80278
    256       0.00000           0.290144            7.89522
    257       0.00000           0.293013            7.97329
    258       0.00000           0.294239            8.00666
    259       0.00000           0.295338            8.03657
    260       0.00000           0.296306            8.06291
    261       0.00000           0.296712            8.07394
    262       0.00000           0.297486            8.09501
    263       0.00000           0.298956            8.13501
    264       0.00000           0.304196            8.27759
    265       0.00000           0.311510            8.47662
    266       0.00000           0.315078            8.57372
    267       0.00000           0.317576            8.64168
    268       0.00000           0.319088            8.68284
    269       0.00000           0.320928            8.73289
    270       0.00000           0.325211            8.84944
    271       0.00000           0.328264            8.93252
    272       0.00000           0.332771            9.05517
    273       0.00000           0.333371            9.07148
    274       0.00000           0.338446            9.20958
    275       0.00000           0.341093            9.28162
    276       0.00000           0.342508            9.32013
    277       0.00000           0.346003            9.41523
    278       0.00000           0.348305            9.47785
    279       0.00000           0.349518            9.51088
    280       0.00000           0.355478            9.67305
    281       0.00000           0.362624            9.86750
    282       0.00000           0.365382            9.94255
    283       0.00000           0.367174            9.99132
    284       0.00000           0.367534           10.00112
    285       0.00000           0.368704           10.03295
    286       0.00000           0.369800           10.06276
    287       0.00000           0.372336           10.13177
    288       0.00000           0.379800           10.33487
    289       0.00000           0.383152           10.42610
    290       0.00000           0.390086           10.61477
    291       0.00000           0.390516           10.62647
    292       0.00000           0.391538           10.65429

  Highest occupied state (VBM) at     -4.90006287 eV
  | Occupation number:      2.00000000

  Lowest unoccupied state (CBM) at    -2.58641836 eV
  | Occupation number:      0.00000000

  Overall HOMO-LUMO gap:      2.31364451 eV.

  Total energy components:
  | Sum of eigenvalues            :        -875.74360685 Ha      -23830.19600944 eV
  | XC energy correction          :        -225.45714881 Ha       -6135.00116441 eV
  | XC potential correction       :         289.63583707 Ha        7881.39212754 eV
  | Free-atom electrostatic energy:        -670.01183831 Ha      -18231.94975176 eV
  | Hartree energy correction     :         -57.68915206 Ha       -1569.80169830 eV
  | Entropy correction            :           0.00000000 Ha           0.00000000 eV
  | ---------------------------
  | Total energy                  :       -1539.26590896 Ha      -41885.55649638 eV
  | Total energy, T -> 0          :       -1539.26590896 Ha      -41885.55649638 eV  <-- do not rely on this value for anything but (periodic) metals
  | Electronic free energy        :       -1539.26590896 Ha      -41885.55649638 eV

  Derived energy quantities:
  | Kinetic energy                :        1535.90433136 Ha       41794.08331588 eV
  | Electrostatic energy          :       -2849.71309151 Ha      -77544.63864785 eV
  | Energy correction for multipole
  | error in Hartree potential    :          -0.18533910 Ha          -5.04333362 eV
  | Sum of eigenvalues per atom                           :        -361.06357590 eV
  | Total energy (T->0) per atom                          :        -634.62964388 eV  <-- do not rely on this value for anything but (periodic) metals
  | Electronic free energy per atom                       :        -634.62964388 eV
  End evaluation of scaled ZORA corrections.
  | Time for scaled ZORA corrections           :        9.919 s           9.929 s
------------------------------------------------------------

  Energy and forces in a compact form:
  | Total energy uncorrected      :         -0.418855564963825E+05 eV
  | Total energy corrected        :         -0.418855564963825E+05 eV  <-- do not rely on this value for anything but (periodic) metals
  | Electronic free energy        :         -0.418855564963825E+05 eV

  ------------------------------------ 
  Start decomposition of the XC Energy 
  ------------------------------------ 
  X and C from original XC functional choice 
  Hartree-Fock Energy :          0.000000000 Ha              0.000000000 eV
  X Energy            :       -216.546369662 Ha          -5892.526526941 eV
  C Energy            :         -8.910779144 Ha           -242.474637472 eV
  Total XC Energy     :       -225.457148805 Ha          -6135.001164412 eV
  ------------------------------------ 
  LDA X and C from self-consistent density 
  X Energy LDA        :       -196.138058159 Ha          -5337.188115647 eV
  C Energy LDA        :        -17.156609790 Ha           -466.855105724 eV
  ------------------------------------ 
  End decomposition of the XC Energy 
  ------------------------------------ 

------------------------------------------------------------

------------------------------------------------------------------------------
  Final output of selected total energy values:

  The following output summarizes some interesting total energy values
  at the end of a run (AFTER all relaxation, molecular dynamics, etc.).

  | Total energy of the DFT / Hartree-Fock s.c.f. calculation      :         -41885.556496382 eV
  | Final zero-broadening corrected energy (caution - metals only) :         -41885.556496382 eV
  | For reference only, the value of 1 Hartree used in FHI-aims is :             27.211384500 eV

  Before relying on these values, please be sure to understand exactly which
  total energy value is referred to by a given number. Different objects may
  all carry the same name 'total energy'. Definitions:

  Total energy of the DFT / Hartree-Fock s.c.f. calculation:
  | Note that this energy does not include ANY quantities calculated after the
  | s.c.f. cycle, in particular not ANY RPA, MP2, etc. many-body perturbation terms.
  | Scalar relativistic effects have been included in the 'scaled ZORA' approximation.

  Final zero-broadening corrected energy:
  | For metallic systems only, a broadening of the occupation numbers at the Fermi
  | level can be extrapolated back to zero broadening by an electron-gas inspired
  | formula. For all systems that are not real metals, this value can be
  | meaningless and should be avoided.

------------------------------------------------------------------------------
  Methods described in the following list of references were used in this FHI-aims run.
  If you publish the results, please make sure to cite these reference if they apply.
  FHI-aims is an academic code, and for our developers (often, Ph.D. students
  and postdocs), scientific credit in the community is essential.
  Thank you for helping us!

  For any use of FHI-aims, please cite:

    Volker Blum, Ralf Gehrke, Felix Hanke, Paula Havu, Ville Havu,
    Xinguo Ren, Karsten Reuter, and Matthias Scheffler
    'Ab initio molecular simulations with numeric atom-centered orbitals'
    Computer Physics Communications 180, 2175-2196 (2009)
    http://dx.doi.org/10.1016/j.cpc.2009.06.022


  The scalable eigensolver library ELPA was used in your run.
  ELPA is essential especially for large systems on hundreds or thousands of CPUs.
  For ELPA, please cite:

    Andreas Marek, Volker Blum, Rainer Johanni, Ville Havu, Bruno Lang,
    Thomas Auckenthaler, Alexander Heinecke, Hans-Joachim Bungartz, and Hermann Lederer,
    'The ELPA Library - Scalable Parallel Eigenvalue Solutions
    for Electronic Structure Theory and Computational Science'
    The Journal of Physics: Condensed Matter 26, 213201 (2014).
    http://dx.doi.org/10.1088/0953-8984/26/21/213201


  The ELSI infrastructure was used in your run to solve the Kohn-Sham electronic structure.
  Please check out http://elsi-interchange.org to learn more.
  If scalability is important for your project, please acknowledge ELSI by citing:

    V. W-z. Yu, F. Corsetti, A. Garcia, W. P. Huhn, M. Jacquelin, W. Jia,
    B. Lange, L. Lin, J. Lu, W. Mi, A. Seifitokaldani, A. Vazquez-Mayagoitia,
    C. Yang, H. Yang, and V. Blum
    'ELSI: A unified software interface for Kohn-Sham electronic structure solvers'
    Computer Physics Communications 222, 267-285 (2018).
    http://dx.doi.org/10.1016/j.cpc.2017.09.007


  For the real-space grid partitioning and parallelization used in this calculation, please cite:

    Ville Havu, Volker Blum, Paula Havu, and Matthias Scheffler,
    'Efficient O(N) integration for all-electron electronic structure calculation'
    'using numerically tabulated basis functions'
    Journal of Computational Physics 228, 8367-8379 (2009).
    http://dx.doi.org/10.1016/j.jcp.2009.08.008

  Of course, there are many other important community references, e.g., those cited in the
  above references. Our list is limited to references that describe implementations in the
  FHI-aims code. The reason is purely practical (length of this list) - please credit others as well.

------------------------------------------------------------
          Leaving FHI-aims.
          Date     :  20210620, Time     :  172955.689

          Computational steps:
          | Number of self-consistency cycles          :           19
          | Number of SCF (re)initializations          :            1

          Detailed time accounting                     :  max(cpu_time)    wall_clock(cpu1)
          | Total time                                 :      182.432 s         182.624 s
          | Preparation time                           :        0.197 s           0.210 s
          | Boundary condition initalization           :        0.001 s           0.003 s
          | Grid partitioning                          :        1.050 s           1.055 s
          | Preloading free-atom quantities on grid    :        0.014 s           0.016 s
          | Free-atom superposition energy             :        0.110 s           0.112 s
          | Total time for integrations                :      100.230 s         100.241 s
          | Total time for solution of K.-S. equations :        5.312 s           5.336 s
          | Total time for density update              :       46.204 s          46.141 s
          | Total time for mixing                      :        0.212 s           0.214 s
          | Total time for Hartree multipole update    :        0.253 s           0.261 s
          | Total time for Hartree multipole sum       :       17.231 s          17.233 s
          | Total time for total energy evaluation     :        0.008 s           0.036 s
          | Total time for scaled ZORA corrections     :        9.919 s           9.929 s

          Partial memory accounting:
          | Residual value for overall tracked memory usage across tasks :     0.000000 MB (should be 0.000000 MB)
          | Peak values for overall tracked memory usage (after allocating zora_vector2):
          |   Minimum:       34.030 MB (on task 56)
          |   Maximum:       44.939 MB (on task 39)
          |   Average:       40.206 MB
          | Largest tracked array allocation (hamiltonian_shell):
          |   Minimum:        9.982 MB (on task  1)
          |   Maximum:        9.982 MB (on task  1)
          |   Average:        9.982 MB
          Note:  These values currently only include a subset of arrays which are explicitly tracked.
          The "true" memory usage will be greater.

          Have a nice day.
------------------------------------------------------------
