  MPI-parallelism will be employed.
------------------------------------------------------------
          Invoking FHI-aims ...
          Version 180607
          Git rev. (modified): 6724847 Fix JSON memory corruption in scf_solver
          Compiled on 2018/06/27 at 16:00:31 on host coe.psc.edu.

          When using FHI-aims, please cite the following reference:

          Volker Blum, Ralf Gehrke, Felix Hanke, Paula Havu,
          Ville Havu, Xinguo Ren, Karsten Reuter, and Matthias Scheffler,
          'Ab Initio Molecular Simulations with Numeric Atom-Centered Orbitals',
          Computer Physics Communications 180, 2175-2196 (2009)

          For any questions about FHI-aims, please visit the aimsclub website
          with its forums and wiki. Contributions to both the forums and the
          wiki are warmly encouraged - they are for you, and everyone is welcome there.

------------------------------------------------------------



  Date     :  20210620, Time     :  174355.963
  Time zero on CPU 1             :   0.364841000000000E+00  s.
  Internal wall clock time zero  :           393443035.963  s.

  FHI-aims created a unique identifier for this run for later identification
  aims_uuid : 89B09832-CD5A-4569-AB8A-6F0D017028C4

  Using       56 parallel tasks.
  Task        0 on host d024 reporting.
  Task        1 on host d024 reporting.
  Task        2 on host d024 reporting.
  Task        3 on host d024 reporting.
  Task        4 on host d024 reporting.
  Task        5 on host d024 reporting.
  Task        6 on host d024 reporting.
  Task        7 on host d024 reporting.
  Task        8 on host d024 reporting.
  Task        9 on host d024 reporting.
  Task       10 on host d024 reporting.
  Task       11 on host d024 reporting.
  Task       12 on host d024 reporting.
  Task       13 on host d024 reporting.
  Task       14 on host d024 reporting.
  Task       15 on host d024 reporting.
  Task       16 on host d024 reporting.
  Task       17 on host d024 reporting.
  Task       18 on host d024 reporting.
  Task       19 on host d024 reporting.
  Task       20 on host d024 reporting.
  Task       21 on host d024 reporting.
  Task       22 on host d024 reporting.
  Task       23 on host d024 reporting.
  Task       24 on host d024 reporting.
  Task       25 on host d024 reporting.
  Task       26 on host d024 reporting.
  Task       27 on host d024 reporting.
  Task       28 on host d024 reporting.
  Task       29 on host d024 reporting.
  Task       30 on host d024 reporting.
  Task       31 on host d024 reporting.
  Task       32 on host d024 reporting.
  Task       33 on host d024 reporting.
  Task       34 on host d024 reporting.
  Task       35 on host d024 reporting.
  Task       36 on host d024 reporting.
  Task       37 on host d024 reporting.
  Task       38 on host d024 reporting.
  Task       39 on host d024 reporting.
  Task       40 on host d024 reporting.
  Task       41 on host d024 reporting.
  Task       42 on host d024 reporting.
  Task       43 on host d024 reporting.
  Task       44 on host d024 reporting.
  Task       45 on host d024 reporting.
  Task       46 on host d024 reporting.
  Task       47 on host d024 reporting.
  Task       48 on host d024 reporting.
  Task       49 on host d024 reporting.
  Task       50 on host d024 reporting.
  Task       51 on host d024 reporting.
  Task       52 on host d024 reporting.
  Task       53 on host d024 reporting.
  Task       54 on host d024 reporting.
  Task       55 on host d024 reporting.

  Performing system and environment tests:
  *** Environment variable OMP_NUM_THREADS is not set
  *** For performance reasons you might want to set it to 1
  | Stacksize not measured: no C compiler
  | Checking for scalapack...
  | Testing pdtran()...
  | All pdtran() tests passed.

  Obtaining array dimensions for all initial allocations:
  
  -----------------------------------------------------------------------
  Parsing control.in (first pass over file, find array dimensions only).
  The contents of control.in will be repeated verbatim below
  unless switched off by setting 'verbatim_writeout .false.' .
  in the first line of control.in .
  -----------------------------------------------------------------------
  
  #===============================================================================
  # FHI-aims file: ./Runs/es/control.in
  # Created using the Atomic Simulation Environment (ASE)
  # Mon Jan 13 16:04:38 2020
  #===============================================================================
  xc                                 pbe
  relativistic                       zora scalar 1e-12
  occupation_type                    gaussian 0.0001
  load_balancing                     .true.
  KS_method                          scalapack_fast
  mixer                              pulay
  n_max_pulay                        5
  charge_mix_param                   0.4
  sc_accuracy_etot                   1e-6
  sc_accuracy_eev                    1e-4
  sc_accuracy_rho                    1e-6
  sc_iter_limit                      100
  prodbas_threshold                  1e-4
  basis_threshold                    1e-5
  override_illconditioning           .true.
  use_logsbt                         .true.
  spin                               none
  charge                             0
  #===============================================================================
  
  ################################################################################
  #
  #  FHI-aims code project
  # Volker Blum, Fritz Haber Institute Berlin, 2009
  #
  #  Suggested "tight" defaults for H atom (to be pasted into control.in file)
  #
  ################################################################################
    species        H
  #     global species definitions
      nucleus             1
      mass                1.00794
  #
      l_hartree           6
  #
      cut_pot             4.0  2.0  1.0
      basis_dep_cutoff    1e-4
  #
      radial_base         24 7.0
      radial_multiplier   2
      angular_grids       specified
        division   0.1930   50
        division   0.3175  110
        division   0.4293  194
        division   0.5066  302
        division   0.5626  434
  #      division   0.5922  590
  #      division   0.6227  974
  #      division   0.6868 1202
  #      outer_grid  770
        outer_grid  434
  ################################################################################
  #
  #  Definition of "minimal" basis
  #
  ################################################################################
  #     valence basis states
      valence      1  s   1.
  #     ion occupancy
      ion_occ      1  s   0.5
  ################################################################################
  #
  #  Suggested additional basis functions. For production calculations,
  #  uncomment them one after another (the most important basis functions are
  #  listed first).
  #
  #  Basis constructed for dimers: 0.5 A, 0.7 A, 1.0 A, 1.5 A, 2.5 A
  #
  ################################################################################
  #  "First tier" - improvements: -1014.90 meV to -62.69 meV
       hydro 2 s 2.1
       hydro 2 p 3.5
  #  "Second tier" - improvements: -12.89 meV to -1.83 meV
       hydro 1 s 0.85
       hydro 2 p 3.7
       hydro 2 s 1.2
       hydro 3 d 7
  #  "Third tier" - improvements: -0.25 meV to -0.12 meV
  #     hydro 4 f 11.2
  #     hydro 3 p 4.8
  #     hydro 4 d 9
  #     hydro 3 s 3.2
  ################################################################################
  #
  # For methods that use the localized form of the "resolution of identity" for
  # the two-electron Coulomb operator (RI_method LVL), particularly Hartree-Fock and
  # hybrid density functional calculations, the highest accuracy can be obtained by
  # uncommenting the line beginning with "for_aux"  below, thus adding an extra g radial
  # function to the construction of the product basis set for the expansion.
  # See Ref. New J. Phys. 17, 093020 (2015) for more information, particularly Figs. 1 and 6.
  #
  ################################################################################
  #
  # for_aux hydro 5 g 6.0
  ################################################################################
  #
  #  FHI-aims code project
  # Volker Blum, Fritz Haber Institute Berlin, 2009
  #
  #  Suggested "tight" defaults for C atom (to be pasted into control.in file)
  #
  ################################################################################
    species        C
  #     global species definitions
      nucleus             6
      mass                12.0107
  #
      l_hartree           6
  #
      cut_pot             4.0  2.0  1.0
      basis_dep_cutoff    1e-4
  #
      radial_base         34 7.0
      radial_multiplier   2
      angular_grids specified
        division   0.2187   50
        division   0.4416  110
        division   0.6335  194
        division   0.7727  302
        division   0.8772  434
  #      division   0.9334  590
  #      division   0.9924  770
  #      division   1.0230  974
  #      division   1.5020 1202
  #     outer_grid  974
        outer_grid  434
  ################################################################################
  #
  #  Definition of "minimal" basis
  #
  ################################################################################
  #     valence basis states
      valence      2  s   2.
      valence      2  p   2.
  #     ion occupancy
      ion_occ      2  s   1.
      ion_occ      2  p   1.
  ################################################################################
  #
  #  Suggested additional basis functions. For production calculations,
  #  uncomment them one after another (the most important basis functions are
  #  listed first).
  #
  #  Constructed for dimers: 1.0 A, 1.25 A, 1.5 A, 2.0 A, 3.0 A
  #
  ################################################################################
  #  "First tier" - improvements: -1214.57 meV to -155.61 meV
       hydro 2 p 1.7
       hydro 3 d 6
       hydro 2 s 4.9
  #  "Second tier" - improvements: -67.75 meV to -5.23 meV
       hydro 4 f 9.8
       hydro 3 p 5.2
       hydro 3 s 4.3
       hydro 5 g 14.4
       hydro 3 d 6.2
  #  "Third tier" - improvements: -2.43 meV to -0.60 meV
  #     hydro 2 p 5.6
  #     hydro 2 s 1.4
  #     hydro 3 d 4.9
  #     hydro 4 f 11.2
  #  "Fourth tier" - improvements: -0.39 meV to -0.18 meV
  #     hydro 2 p 2.1
  #     hydro 5 g 16.4
  #     hydro 4 d 13.2
  #     hydro 3 s 13.6
  #     hydro 4 f 17.6
  #  Further basis functions - improvements: -0.08 meV and below
  #     hydro 3 s 2
  #     hydro 3 p 6
  #     hydro 4 d 20
  ################################################################################
  #
  # For methods that use the localized form of the "resolution of identity" for
  # the two-electron Coulomb operator (RI_method LVL), particularly Hartree-Fock and
  # hybrid density functional calculations, the highest accuracy can be obtained by
  # uncommenting the line beginning with "for_aux"  below, thus adding an extra g radial
  # function to the construction of the product basis set for the expansion.
  # See Ref. New J. Phys. 17, 093020 (2015) for more information, particularly Figs. 1 and 6.
  #
  ################################################################################
  #
  # for_aux hydro 5 g 6.0
  
  -----------------------------------------------------------------------
  Completed first pass over input file control.in .
  -----------------------------------------------------------------------
  
  
  -----------------------------------------------------------------------
  Parsing geometry.in (first pass over file, find array dimensions only).
  The contents of geometry.in will be repeated verbatim below
  unless switched off by setting 'verbatim_writeout .false.' .
  in the first line of geometry.in .
  -----------------------------------------------------------------------
  
  #=======================================================
  # FHI-aims file: geometry.in
  # Created using the Atomic Simulation Environment (ASE)
  # Sun Jun 20 15:47:02 2021
  #=======================================================
  atom 26.0729450000000007 18.8900030000000001 46.2951320000000024 H
  atom 26.0925040000000017 18.9111490000000018 45.2050399999999968 C
  atom 25.0822290000000017 19.6303860000000014 44.5220070000000021 C
  atom 27.0820509999999999 18.2889130000000009 44.5042260000000027 C
  atom 24.0666389999999986 20.3211079999999988 45.2370069999999984 C
  atom 25.0894580000000005 19.6720490000000012 43.0986270000000005 C
  atom 27.8803640000000001 17.7603159999999995 45.0221289999999996 H
  atom 27.0903419999999997 18.3315589999999986 43.1075170000000014 C
  atom 23.0934619999999988 21.0193270000000005 44.5736459999999965 C
  atom 24.0898119999999984 20.2889000000000017 46.3278549999999996 H
  atom 24.0594110000000008 20.4091200000000015 42.4252400000000023 C
  atom 26.1223750000000017 18.9961170000000017 42.3777630000000016 C
  atom 27.9063009999999991 17.8284400000000005 42.5939649999999972 H
  atom 22.3138579999999997 21.5548590000000004 45.1108419999999981 H
  atom 23.1007970000000000 21.0570489999999992 43.1752340000000032 C
  atom 24.0633440000000007 20.4413370000000008 40.9600569999999991 C
  atom 26.1178039999999996 19.0473329999999983 40.9074719999999985 C
  atom 22.3161969999999990 21.6272470000000006 42.6819210000000027 H
  atom 23.1138720000000006 21.1208759999999991 40.2216019999999972 C
  atom 25.0778709999999982 19.7537179999999992 40.2246280000000027 C
  atom 27.1043740000000000 18.4297910000000016 40.1637210000000024 C
  atom 23.1023919999999983 21.1666920000000012 38.8385109999999969 C
  atom 22.3233190000000015 21.6668829999999986 40.7334510000000023 H
  atom 25.0825479999999992 19.7868870000000001 38.7929249999999968 C
  atom 27.9222460000000012 17.9114460000000015 40.6562759999999983 H
  atom 27.1070320000000002 18.4748069999999984 38.7789280000000005 C
  atom 22.3150280000000016 21.7407840000000014 38.3573049999999967 H
  atom 24.0753559999999993 20.5080719999999985 38.0860589999999988 C
  atom 26.1147209999999994 19.1265290000000014 38.0601449999999986 C
  atom 27.9273489999999995 17.9861860000000000 38.2598910000000032 H
  atom 24.0668520000000008 20.5416899999999991 36.6199299999999965 C
  atom 26.1254570000000008 19.1598919999999993 36.6038520000000034 C
  atom 23.1124900000000011 21.2349479999999993 35.9013360000000006 C
  atom 25.0954100000000011 19.8630430000000011 35.8956609999999969 C
  atom 27.1109650000000002 18.5409240000000004 35.8430760000000035 C
  atom 22.3209799999999987 21.7786580000000001 36.4105369999999979 H
  atom 23.1215259999999994 21.2688109999999995 34.5190020000000004 C
  atom 25.0920090000000009 19.8969780000000007 34.4658500000000032 C
  atom 27.9286239999999992 18.0190969999999986 36.3333620000000010 H
  atom 27.1143660000000004 18.5757380000000012 34.4658500000000032 C
  atom 22.3355430000000013 21.8441450000000010 34.0328769999999992 H
  atom 24.0803520000000013 20.6259279999999983 33.7621990000000025 C
  atom 26.1318349999999988 19.2324650000000013 33.7398790000000020 C
  atom 27.9341520000000010 18.0816330000000001 33.9511630000000011 H
  atom 24.0945959999999992 20.6717919999999999 32.2949350000000024 C
  atom 26.1293900000000008 19.2456250000000004 32.2746950000000012 C
  atom 23.1340690000000002 21.3651400000000002 31.5776649999999997 C
  atom 25.1103990000000010 19.9695760000000000 31.5788000000000011 C
  atom 27.0875790000000016 18.5817070000000015 31.5298090000000002 C
  atom 22.3455359999999992 21.9119349999999997 32.0870549999999994 H
  atom 23.1585180000000008 21.4039579999999994 30.1745240000000017 C
  atom 25.1161390000000004 20.0054400000000001 30.1644989999999993 C
  atom 27.8805769999999988 18.0302800000000012 32.0270930000000007 H
  atom 27.0932129999999987 18.6075400000000002 30.1281810000000014 C
  atom 22.3936899999999994 21.9840440000000008 29.6596480000000007 H
  atom 24.1161749999999984 20.7362700000000011 29.4754129999999996 C
  atom 26.1226939999999992 19.3111689999999996 29.4542269999999995 C
  atom 27.8678209999999993 18.0623660000000008 29.5955249999999985 H
  atom 24.1422179999999997 20.7532649999999990 28.3860780000000013 H
  atom 26.1252449999999996 19.3574050000000000 28.3652709999999999 H
  
  -----------------------------------------------------------------------
  Completed first pass over input file geometry.in .
  -----------------------------------------------------------------------
  

  Basic array size parameters:
  | Number of species                 :        2
  | Number of atoms                   :       60
  | Max. basis fn. angular momentum   :        4
  | Max. atomic/ionic basis occupied n:        2
  | Max. number of basis fn. types    :        2
  | Max. radial fns per species/type  :        8
  | Max. logarithmic grid size        :     1277
  | Max. radial integration grid size :       69
  | Max. angular integration grid size:      434
  | Max. angular grid division number :        8
  | Radial grid for Hartree potential :     1277
  | Number of spin channels           :        1

------------------------------------------------------------
          Reading file control.in.
------------------------------------------------------------
  XC: Using PBE gradient-corrected functionals.
  Scalar relativistic treatment of kinetic energy: ZORA.
  Threshold value for ZORA:   0.100000E-11
  Occupation type: Gaussian broadening, width =   0.100000E-03 eV.
  Since 'load_balancing .true.' is present in control.in, automatically turning on 'use_local_index .true.'.
  Using load balancing for integrations.
  Kohn-Sham electronic structure solved by the ELSI library.
  Using pulay charge density mixing.
  Pulay mixing - number of memorized iterations:    5
  Charge density mixing - mixing parameter:     0.4000
  Convergence accuracy of total energy:  0.1000E-05
  Convergence accuracy of sum of eigenvalues:  0.1000E-03
  Convergence accuracy of self-consistent charge density:  0.1000E-05
  Maximum number of s.-c. iterations  :   100
  * Ignoring prodbas_threshold
  Threshold for basis singularities:  0.1000E-04
  override_illconditioning: Explicitly overriding any built-in checks for an ill-conditioned overlap matrix.
  *** WARNING: If you use this flag, you should really know what you are doing.
  *** DO NOT keep this flag set by default in all your control.in files.
  Using 1D integrations for auxiliary 2-center integrals.
  Spin treatment: No spin polarisation.
  Charge =   0.000000E+00: Neutral system requested explicitly.
 
  Reading configuration options for species H                   .
  | Found nuclear charge :   1.0000
  | Found atomic mass :    1.00794000000000      amu
  | Found l_max for Hartree potential  :   6
  | Found cutoff potl. onset [A], width [A], scale factor :    4.00000    2.00000    1.00000
  | Threshold for basis-dependent cutoff potential is   0.100000E-03
  | Found data for basic radial integration grid :    24 points, outermost radius =    7.000 A
  | Found multiplier for basic radial grid :   2
  | Found angular grid specification: user-specified.
  | Specified grid contains     6 separate shells.
  | Check grid settings after all constraints further below.
  | Found free-atom valence shell :  1 s   1.000
  | No ionic wave fns used. Skipping ion_occ.
  | Found hydrogenic basis function :  2 s   2.100
  | Found hydrogenic basis function :  2 p   3.500
  | Found hydrogenic basis function :  1 s   0.850
  | Found hydrogenic basis function :  2 p   3.700
  | Found hydrogenic basis function :  2 s   1.200
  | Found hydrogenic basis function :  3 d   7.000
  Species H                   : Missing cutoff potential type.
  Defaulting to exp(1/x)/(1-x)^2 type cutoff potential.
  Species H : No 'logarithmic' tag. Using default grid for free atom:
  | Default logarithmic grid data [bohr] : 0.1000E-03 0.1000E+03 0.1012E+01
  Species H : On-site basis accuracy parameter (for Gram-Schmidt orthonormalisation) not specified.
  Using default value basis_acc =  0.1000000E-03.
  Species H                   : Using default innermost maximum threshold i_radial=  2 for radial functions.
  Species H                   : Default cutoff onset for free atom density etc. : 0.40000000E+01 AA.
  Species H                   : Basic radial grid will be enhanced according to radial_multiplier =   2, to contain    49 grid points.
 
  Reading configuration options for species C                   .
  | Found nuclear charge :   6.0000
  | Found atomic mass :    12.0107000000000      amu
  | Found l_max for Hartree potential  :   6
  | Found cutoff potl. onset [A], width [A], scale factor :    4.00000    2.00000    1.00000
  | Threshold for basis-dependent cutoff potential is   0.100000E-03
  | Found data for basic radial integration grid :    34 points, outermost radius =    7.000 A
  | Found multiplier for basic radial grid :   2
  | Found angular grid specification: user-specified.
  | Specified grid contains     6 separate shells.
  | Check grid settings after all constraints further below.
  | Found free-atom valence shell :  2 s   2.000
  | Found free-atom valence shell :  2 p   2.000
  | No ionic wave fns used. Skipping ion_occ.
  | No ionic wave fns used. Skipping ion_occ.
  | Found hydrogenic basis function :  2 p   1.700
  | Found hydrogenic basis function :  3 d   6.000
  | Found hydrogenic basis function :  2 s   4.900
  | Found hydrogenic basis function :  4 f   9.800
  | Found hydrogenic basis function :  3 p   5.200
  | Found hydrogenic basis function :  3 s   4.300
  | Found hydrogenic basis function :  5 g  14.400
  | Found hydrogenic basis function :  3 d   6.200
  Species C                   : Missing cutoff potential type.
  Defaulting to exp(1/x)/(1-x)^2 type cutoff potential.
  Species C : No 'logarithmic' tag. Using default grid for free atom:
  | Default logarithmic grid data [bohr] : 0.1000E-03 0.1000E+03 0.1012E+01
  Species C : On-site basis accuracy parameter (for Gram-Schmidt orthonormalisation) not specified.
  Using default value basis_acc =  0.1000000E-03.
  Species C                   : Using default innermost maximum threshold i_radial=  2 for radial functions.
  Species C                   : Default cutoff onset for free atom density etc. : 0.40000000E+01 AA.
  Species C                   : Basic radial grid will be enhanced according to radial_multiplier =   2, to contain    69 grid points.
 
  Finished reading input file 'control.in'. Consistency checks are next.
 
  MPI_IN_PLACE appears to work with this MPI implementation.
  | Keeping use_mpi_in_place .true. (see manual).
  Target number of points in a grid batch is not set. Defaulting to  100
  Method for grid partitioning is not set. Defaulting to parallel hash+maxmin partitioning.
  Batch size limit is not set. Defaulting to    200
  By default, will store active basis functions for each batch.
  If in need of memory, prune_basis_once .false. can be used to disable this option.
  communication_type for Hartree potential was not specified.
  Defaulting to calc_hartree .
  Pulay mixer: Number of initial linear mixing iterations not set.
  Defaulting to    0 iterations.
  Work space size for distributed Hartree potential not set.
  Defaulting to   0.200000E+03 MB.
  Algorithm-dependent basis array size parameters:
  | n_max_pulay                         :        5
  Presetting      1001 iterations before the initial mixing cycle
  is restarted anyway using the sc_init_iter criterion / keyword.
  Presetting a factor      1.000 between actual scf density residual
  and density convergence criterion sc_accuracy_rho below which sc_init_iter
  takes no effect.
  Calculation of forces was not defined in control.in. No forces will be calculated.
  Geometry relaxation not requested: no relaxation will be performed.
  No accuracy limit for integral partition fn. given. Defaulting to  0.1000E-14.
  No threshold value for u(r) in integrations given. Defaulting to  0.1000E-05.
  No accuracy for occupation numbers given. Defaulting to  0.1000E-12.
  No threshold value for occupation numbers given. Defaulting to  0.0000E+00.
  No accuracy for fermi level given. Defaulting to  0.1000E-19.
  Maximum # of iterations to find E_F not set. Defaulting to  200.
  Will not use alltoall communication since running on < 1024 CPUs.
  partition_type (choice of integration weights) for integrals was not specified.
  | Using a version of the partition function of Stratmann and coworkers ('stratmann_sparse').
  | At each grid point, the set of atoms used to build the partition table is smoothly restricted to
  | only those atoms whose free-atom density would be non-zero at that grid point.
  Partitioning for Hartree potential was not defined. Using partition_type for integrals.
  | Adjusted default value of keyword multip_moments_threshold to:       0.10000000E-11
  | This value may affect high angular momentum components of the Hartree potential in periodic systems.
  No q(lm)/r^(l+1) cutoff set for long-range Hartree potential.
  | Using default value of  0.100000E-09 .
  | Verify using the multipole_threshold keyword.
  Defaulting to new monopole extrapolation.
  Density update method: automatic selection selected.
 * Warning: use_local_index and/or load_balancing needs packed_matrix_format = index
 * Changing the default setting to packed_matrix_format = index
------------------------------------------------------------


------------------------------------------------------------
          Reading geometry description geometry.in.
------------------------------------------------------------
  Input structure read successfully.
  The structure contains       60 atoms,  and a total of        260.000 electrons.

  Input geometry:
  | No unit cell requested.
  | Atomic structure:
  |       Atom                x [A]            y [A]            z [A]
  |    1: Species H            26.07294500       18.89000300       46.29513200
  |    2: Species C            26.09250400       18.91114900       45.20504000
  |    3: Species C            25.08222900       19.63038600       44.52200700
  |    4: Species C            27.08205100       18.28891300       44.50422600
  |    5: Species C            24.06663900       20.32110800       45.23700700
  |    6: Species C            25.08945800       19.67204900       43.09862700
  |    7: Species H            27.88036400       17.76031600       45.02212900
  |    8: Species C            27.09034200       18.33155900       43.10751700
  |    9: Species C            23.09346200       21.01932700       44.57364600
  |   10: Species H            24.08981200       20.28890000       46.32785500
  |   11: Species C            24.05941100       20.40912000       42.42524000
  |   12: Species C            26.12237500       18.99611700       42.37776300
  |   13: Species H            27.90630100       17.82844000       42.59396500
  |   14: Species H            22.31385800       21.55485900       45.11084200
  |   15: Species C            23.10079700       21.05704900       43.17523400
  |   16: Species C            24.06334400       20.44133700       40.96005700
  |   17: Species C            26.11780400       19.04733300       40.90747200
  |   18: Species H            22.31619700       21.62724700       42.68192100
  |   19: Species C            23.11387200       21.12087600       40.22160200
  |   20: Species C            25.07787100       19.75371800       40.22462800
  |   21: Species C            27.10437400       18.42979100       40.16372100
  |   22: Species C            23.10239200       21.16669200       38.83851100
  |   23: Species H            22.32331900       21.66688300       40.73345100
  |   24: Species C            25.08254800       19.78688700       38.79292500
  |   25: Species H            27.92224600       17.91144600       40.65627600
  |   26: Species C            27.10703200       18.47480700       38.77892800
  |   27: Species H            22.31502800       21.74078400       38.35730500
  |   28: Species C            24.07535600       20.50807200       38.08605900
  |   29: Species C            26.11472100       19.12652900       38.06014500
  |   30: Species H            27.92734900       17.98618600       38.25989100
  |   31: Species C            24.06685200       20.54169000       36.61993000
  |   32: Species C            26.12545700       19.15989200       36.60385200
  |   33: Species C            23.11249000       21.23494800       35.90133600
  |   34: Species C            25.09541000       19.86304300       35.89566100
  |   35: Species C            27.11096500       18.54092400       35.84307600
  |   36: Species H            22.32098000       21.77865800       36.41053700
  |   37: Species C            23.12152600       21.26881100       34.51900200
  |   38: Species C            25.09200900       19.89697800       34.46585000
  |   39: Species H            27.92862400       18.01909700       36.33336200
  |   40: Species C            27.11436600       18.57573800       34.46585000
  |   41: Species H            22.33554300       21.84414500       34.03287700
  |   42: Species C            24.08035200       20.62592800       33.76219900
  |   43: Species C            26.13183500       19.23246500       33.73987900
  |   44: Species H            27.93415200       18.08163300       33.95116300
  |   45: Species C            24.09459600       20.67179200       32.29493500
  |   46: Species C            26.12939000       19.24562500       32.27469500
  |   47: Species C            23.13406900       21.36514000       31.57766500
  |   48: Species C            25.11039900       19.96957600       31.57880000
  |   49: Species C            27.08757900       18.58170700       31.52980900
  |   50: Species H            22.34553600       21.91193500       32.08705500
  |   51: Species C            23.15851800       21.40395800       30.17452400
  |   52: Species C            25.11613900       20.00544000       30.16449900
  |   53: Species H            27.88057700       18.03028000       32.02709300
  |   54: Species C            27.09321300       18.60754000       30.12818100
  |   55: Species H            22.39369000       21.98404400       29.65964800
  |   56: Species C            24.11617500       20.73627000       29.47541300
  |   57: Species C            26.12269400       19.31116900       29.45422700
  |   58: Species H            27.86782100       18.06236600       29.59552500
  |   59: Species H            24.14221800       20.75326500       28.38607800
  |   60: Species H            26.12524500       19.35740500       28.36527100
  |

  | The smallest distance between any two atoms is         1.08637313 AA.
  |
  | The first atom of this pair is atom number                     21 .
  | The second atom of this pair is atom number                    25 .

  Number of empty states per atom not set in control.in - providing a guess from actual geometry.
  | Total number of empty states used during s.c.f. cycle:      150
  If you use a very high smearing, use empty_states (per atom!) in control.in to increase this value.

  Structure-dependent array size parameters: 
  | Maximum number of distinct radial functions  :       18
  | Maximum number of basis functions            :     1860
  | Number of Kohn-Sham states (occupied + empty):      280
------------------------------------------------------------

------------------------------------------------------------
          Preparing all fixed parts of the calculation.
------------------------------------------------------------
  Determining machine precision:
    2.225073858507201E-308
  Setting up grids for atomic and cluster calculations.

  Creating wave function, potential, and density for free atoms.

  Species: H

  List of occupied orbitals and eigenvalues:
    n    l              occ      energy [Ha]    energy [eV]
    1    0           1.0000        -0.238386        -6.4868


  Species: C

  List of occupied orbitals and eigenvalues:
    n    l              occ      energy [Ha]    energy [eV]
    1    0           2.0000       -10.049212      -273.4530
    2    0           2.0000        -0.504761       -13.7352
    2    1           2.0000        -0.193631        -5.2690

  Creating fixed part of basis set: Ionic, confined, hydrogenic.
 
  H                    hydrogenic:
 
  List of hydrogenic basis orbitals: 
    n    l      effective z      eigenvalue [eV]  inner max. [A]     outer max. [A]     outer radius [A]   
    2    0         2.100000       -14.9965           0.193243           1.317208           5.373006
    2    1         3.500000       -41.6672           0.602369           0.602369           4.056063
    1    0         0.850000        -9.8292           0.624871           0.624871           5.373006
    2    1         3.700000       -46.5653           0.573622           0.573622           3.910002
    2    0         1.200000        -4.5995           0.334980           2.228188           5.505995
    3    2         7.000000       -74.0753           0.680699           0.680699           3.769201
 
 
  C                    hydrogenic:
 
  List of hydrogenic basis orbitals: 
    n    l      effective z      eigenvalue [eV]  inner max. [A]     outer max. [A]     outer radius [A]   
    2    1         1.700000        -9.8152           1.245706           1.245706           5.401630
    3    2         6.000000       -54.4226           0.792453           0.792453           4.178599
    2    0         4.900000       -81.6681           0.082559           0.562749           3.353238
    4    3         9.800000       -81.6681           0.863254           0.863254           4.028125
    3    1         5.200000       -40.8774           0.305389           1.215618           4.898362
    3    0         4.300000       -27.9508           0.091041           1.610311           5.401630
    5    4        14.400000      -112.8510           0.917666           0.917666           3.883070
    3    2         6.200000       -58.1113           0.763917           0.763917           4.077671
 

  Adding cutoff potential to free-atom effective potential.
  Creating atomic-like basis functions for current effective potential.

  Species H                   :

  List of atomic basis orbitals and eigenvalues:
    n    l      energy [Ha]    energy [eV]    outer radius [A]
    1    0        -0.238386        -6.4868       5.373006


  Species C                   :

  List of atomic basis orbitals and eigenvalues:
    n    l      energy [Ha]    energy [eV]    outer radius [A]
    1    0       -10.049212      -273.4530       1.934409
    2    0        -0.504761       -13.7352       5.271162
    2    1        -0.193631        -5.2690       5.401630

  Assembling full basis from fixed parts.
  | Species H :   atomic orbital   1 s accepted.
  | Species H :    hydro orbital   2 s accepted.
  | Species H :    hydro orbital   1 s accepted.
  | Species H :    hydro orbital   2 s accepted.
  | Species H :    hydro orbital   2 p accepted.
  | Species H :    hydro orbital   2 p accepted.
  | Species H :    hydro orbital   3 d accepted.
  | Species C :   atomic orbital   1 s accepted.
  | Species C :    hydro orbital   2 s accepted.
  | Species C :   atomic orbital   2 s accepted.
  | Species C :    hydro orbital   3 s accepted.
  | Species C :    hydro orbital   3 p accepted.
  | Species C :   atomic orbital   2 p accepted.
  | Species C :    hydro orbital   2 p accepted.
  | Species C :    hydro orbital   3 d accepted.
  | Species C :    hydro orbital   3 d accepted.
  | Species C :    hydro orbital   4 f accepted.
  | Species C :    hydro orbital   5 g accepted.
 
  Basis size parameters after reduction:
  | Total number of radial functions:       18
  | Total number of basis functions :     1860
 
  Per-task memory consumption for arrays in subroutine allocate_ext:
  |           4.456456MB.
  Testing on-site integration grid accuracy.
  |  Species  Function  <phi|h_atom|phi> (log., in eV)  <phi|h_atom|phi> (rad., in eV)
           1        1                 -6.4870767962                 -6.4871688290
           1        2                 13.5032046589                 13.5028982997
           1        3                 32.8195184817                 32.8119941656
           1        4                 33.8513856511                 33.7670005767 ***
           1        5                 28.8544614965                 28.8544615203
           1        6                 59.6326952547                 59.6327656460
           1        7                 60.2719308513                 60.2719305949
           2        8               -273.4529726040               -273.4529710464
           2        9                -10.7721037319                -10.7721022101
           2       10                 17.6044132601                 17.6044162063
           2       11                 53.7706460658                 53.7706913770
           2       12                 15.0973290362                 15.0973256030
           2       13                  3.8545134692                  3.8545724687
           2       14                 12.1156992592                 12.1182024431
           2       15                 29.4352039302                 29.4352041816
           2       16                 54.8741144708                 54.8740268729
           2       17                 59.3556032049                 59.3556031382
           2       18                 93.4551837154                 93.4551838009
 * Note: Onsite integrals marked "***" above are less accurate than
 * onsite_accuracy_threshold =    0.03000 eV. Usually, this is harmless.
 * When in doubt, tighten the "radial" and/or "radial_multiplier" flags to check.

  Preparing densities etc. for the partition functions (integrals / Hartree potential).

  Preparations completed.
  max(cpu_time)          :      0.185 s.
  Wall clock time (cpu1) :      0.183 s.
------------------------------------------------------------

------------------------------------------------------------
          Begin self-consistency loop: Initialization.

          Date     :  20210620, Time     :  174356.330
------------------------------------------------------------

  Initializing index lists of integration centers etc. from given atomic structure:
  | Number of centers in hartree potential         :        60
  | Number of centers in hartree multipole         :        60
  | Number of centers in electron density summation:        60
  | Number of centers in basis integrals           :        60
  | Number of centers in integrals                 :        60
  | Number of centers in hamiltonian               :        60
  * Using 56 tasks for Scalapack Eigenvalue solver.
  Detailed listing of tasks and assigned k-points:
  (for non-periodic systems, the "k-point" denotes an internal label only)
   Task     0 k-point     1 on d024
   Task     1 k-point     1 on d024
   Task     2 k-point     1 on d024
   Task     3 k-point     1 on d024
   Task     4 k-point     1 on d024
   Task     5 k-point     1 on d024
   Task     6 k-point     1 on d024
   Task     7 k-point     1 on d024
   Task     8 k-point     1 on d024
   Task     9 k-point     1 on d024
   Task    10 k-point     1 on d024
   Task    11 k-point     1 on d024
   Task    12 k-point     1 on d024
   Task    13 k-point     1 on d024
   Task    14 k-point     1 on d024
   Task    15 k-point     1 on d024
   Task    16 k-point     1 on d024
   Task    17 k-point     1 on d024
   Task    18 k-point     1 on d024
   Task    19 k-point     1 on d024
   Task    20 k-point     1 on d024
   Task    21 k-point     1 on d024
   Task    22 k-point     1 on d024
   Task    23 k-point     1 on d024
   Task    24 k-point     1 on d024
   Task    25 k-point     1 on d024
   Task    26 k-point     1 on d024
   Task    27 k-point     1 on d024
   Task    28 k-point     1 on d024
   Task    29 k-point     1 on d024
   Task    30 k-point     1 on d024
   Task    31 k-point     1 on d024
   Task    32 k-point     1 on d024
   Task    33 k-point     1 on d024
   Task    34 k-point     1 on d024
   Task    35 k-point     1 on d024
   Task    36 k-point     1 on d024
   Task    37 k-point     1 on d024
   Task    38 k-point     1 on d024
   Task    39 k-point     1 on d024
   Task    40 k-point     1 on d024
   Task    41 k-point     1 on d024
   Task    42 k-point     1 on d024
   Task    43 k-point     1 on d024
   Task    44 k-point     1 on d024
   Task    45 k-point     1 on d024
   Task    46 k-point     1 on d024
   Task    47 k-point     1 on d024
   Task    48 k-point     1 on d024
   Task    49 k-point     1 on d024
   Task    50 k-point     1 on d024
   Task    51 k-point     1 on d024
   Task    52 k-point     1 on d024
   Task    53 k-point     1 on d024
   Task    54 k-point     1 on d024
   Task    55 k-point     1 on d024
  Tasks:    56 split into      8 X      7 BLACS grid
  Calculating block size based on n_basis =         1860 max_nprow =            8 max_npcol =            7
  ScaLAPACK block size set to:           16
  Allocating        0.522 MB for ovlp
  Allocating        0.522 MB for ham
  Allocating        0.522 MB for eigenvec
  Required Scalapack workspace - INTEGER:            1 REAL:             1
  Partitioning the integration grid into batches with parallel hashing+maxmin method.
  | Number of batches:     9705
  | Maximal batch size:     200
  | Minimal batch size:      28
  | Average batch size:     104.289
  | Standard deviation of batch sizes:      26.683

  Integration load balanced across     56 MPI tasks.
  Work distribution over tasks is as follows:
  Task      0 has      18127 integration points.
  Task      1 has      18137 integration points.
  Task      2 has      17991 integration points.
  Task      3 has      18186 integration points.
  Task      4 has      18051 integration points.
  Task      5 has      18059 integration points.
  Task      6 has      18037 integration points.
  Task      7 has      18198 integration points.
  Task      8 has      18136 integration points.
  Task      9 has      17973 integration points.
  Task     10 has      18139 integration points.
  Task     11 has      17972 integration points.
  Task     12 has      18109 integration points.
  Task     13 has      17952 integration points.
  Task     14 has      18122 integration points.
  Task     15 has      18142 integration points.
  Task     16 has      18021 integration points.
  Task     17 has      18136 integration points.
  Task     18 has      18035 integration points.
  Task     19 has      18116 integration points.
  Task     20 has      18032 integration points.
  Task     21 has      18096 integration points.
  Task     22 has      18064 integration points.
  Task     23 has      18030 integration points.
  Task     24 has      18107 integration points.
  Task     25 has      18079 integration points.
  Task     26 has      18086 integration points.
  Task     27 has      17979 integration points.
  Task     28 has      18110 integration points.
  Task     29 has      18119 integration points.
  Task     30 has      18056 integration points.
  Task     31 has      18230 integration points.
  Task     32 has      18095 integration points.
  Task     33 has      18056 integration points.
  Task     34 has      17958 integration points.
  Task     35 has      18142 integration points.
  Task     36 has      18099 integration points.
  Task     37 has      17997 integration points.
  Task     38 has      18302 integration points.
  Task     39 has      17957 integration points.
  Task     40 has      18070 integration points.
  Task     41 has      17882 integration points.
  Task     42 has      18174 integration points.
  Task     43 has      18073 integration points.
  Task     44 has      18027 integration points.
  Task     45 has      18075 integration points.
  Task     46 has      18070 integration points.
  Task     47 has      18146 integration points.
  Task     48 has      17953 integration points.
  Task     49 has      18081 integration points.
  Task     50 has      18065 integration points.
  Task     51 has      18060 integration points.
  Task     52 has      18154 integration points.
  Task     53 has      18054 integration points.
  Task     54 has      18093 integration points.
  Task     55 has      17910 integration points.
  Initializing partition tables, free-atom densities, potentials, etc. across the integration grid (initialize_grid_storage).
  | initialize_grid_storage: Actual outermost partition radius vs. multipole_radius_free
  | (-- VB: in principle, multipole_radius_free should be larger, hence this output)
  | Species        1: Confinement radius =              6.000000000000000 AA, multipole_radius_free =              6.071692442739658 AA.
  | Species        1: outer_partition_radius set to              6.071692442739658 AA .
  | Species        2: Confinement radius =              6.000000000000000 AA, multipole_radius_free =              6.029870734432609 AA.
  | Species        2: outer_partition_radius set to              6.029870734432609 AA .
  | The sparse table of interatomic distances needs     40.7560 kbyte instead of    28.8000 kbyte of memory.
  | Using the partition_type stratmann_smoother will reduce your memory usage.
  | Net number of integration points:  1012120
  | of which are non-zero points    :   808600
  Renormalizing the initial density to the exact electron count on the 3D integration grid.
  | Initial density: Formal number of electrons (from input files) :     260.0000000000
  | Integrated number of electrons on 3D grid     :     259.9992157200
  | Charge integration error                      :      -0.0007842800
  | Normalization factor for density and gradient :       1.0000030165
  Obtaining max. number of non-zero basis functions in each batch (get_n_compute_maxes).
  | Maximal number of non-zero basis functions:      922
  Selecting the method for density update.
  Loop over occupied states selected for charge density update.
  Hamiltonian matrix size:
  | Size of matrix non-packed:               1730730
  | Size of matrix packed:         1248489
  Allocating        4.166 MB for KS_eigenvector
  use_local_index: Max. local matrix size =       829761
  Task:     0 matrix size:     355571
  Task:     1 matrix size:     187532
  Task:     2 matrix size:     353033
  Task:     3 matrix size:     817501
  Task:     4 matrix size:     827688
  Task:     5 matrix size:     715990
  Task:     6 matrix size:     823430
  Task:     7 matrix size:     178912
  Task:     8 matrix size:     180893
  Task:     9 matrix size:     316719
  Task:    10 matrix size:     480226
  Task:    11 matrix size:     404238
  Task:    12 matrix size:     734275
  Task:    13 matrix size:     667170
  Task:    14 matrix size:     141778
  Task:    15 matrix size:     304965
  Task:    16 matrix size:     201106
  Task:    17 matrix size:     689256
  Task:    18 matrix size:     782595
  Task:    19 matrix size:     513360
  Task:    20 matrix size:     379284
  Task:    21 matrix size:     320664
  Task:    22 matrix size:     193707
  Task:    23 matrix size:     326338
  Task:    24 matrix size:     829761
  Task:    25 matrix size:     826182
  Task:    26 matrix size:     720186
  Task:    27 matrix size:     775010
  Task:    28 matrix size:     780746
  Task:    29 matrix size:     695988
  Task:    30 matrix size:     787695
  Task:    31 matrix size:     422778
  Task:    32 matrix size:     452915
  Task:    33 matrix size:     220734
  Task:    34 matrix size:     226095
  Task:    35 matrix size:     375650
  Task:    36 matrix size:     723121
  Task:    37 matrix size:     600765
  Task:    38 matrix size:     263930
  Task:    39 matrix size:     446969
  Task:    40 matrix size:     144453
  Task:    41 matrix size:     228810
  Task:    42 matrix size:     658713
  Task:    43 matrix size:     448719
  Task:    44 matrix size:     490663
  Task:    45 matrix size:     421649
  Task:    46 matrix size:     262947
  Task:    47 matrix size:     222096
  Task:    48 matrix size:     141778
  Task:    49 matrix size:     767994
  Task:    50 matrix size:     771946
  Task:    51 matrix size:     768345
  Task:    52 matrix size:     474812
  Task:    53 matrix size:     484026
  Task:    54 matrix size:     232171
  Task:    55 matrix size:     250194
  Integrating Hamiltonian matrix: batch-based integration.
  Time summed over all CPUs for integration: real work      191.405 s, elapsed      350.616 s
  Time get_set_sparse_local_matrix_scalapack:     0.018438 s
  Start compute_balanced_batch_distribution
  Done load balancing, time needed:      0.010 s
  Integrating overlap matrix with loadbalancing
  Time summed over all CPUs for integration: real work       54.948 s, elapsed       62.493 s
  Time get_set_full_local_matrix_scalapack:     0.021303 s

  Updating Kohn-Sham eigenvalues and eigenvectors using ELSI and the ELPA eigensolver.
  Overlap matrix is not singular
  | Lowest and highest eigenvalues :  0.11E+02,  0.80E-04
  Finished singularity check of overlap matrix
  | Time :     0.133 s
  Finished Cholesky decomposition
  | Time :     0.029 s
  Finished transformation to standard eigenproblem
  | Time :     0.026 s
  Starting ELPA eigensolver
  Finished solving standard eigenproblem
  | Time :     0.143 s
  Finished back-transformation of eigenvectors
  | Time :     0.007 s

  Obtaining occupation numbers and chemical potential using ELSI.
  | Chemical potential (Fermi level):    -7.93324849 eV
  Writing Kohn-Sham eigenvalues.

  State    Occupation    Eigenvalue [Ha]    Eigenvalue [eV]
      1       2.00000         -10.174290         -276.85652
      2       2.00000         -10.174215         -276.85448
      3       2.00000         -10.174102         -276.85139
      4       2.00000         -10.173843         -276.84437
      5       2.00000         -10.173724         -276.84111
      6       2.00000         -10.173714         -276.84083
      7       2.00000         -10.173560         -276.83666
      8       2.00000         -10.173408         -276.83251
      9       2.00000         -10.172965         -276.82046
     10       2.00000         -10.172645         -276.81176
     11       2.00000         -10.171793         -276.78856
     12       2.00000         -10.171721         -276.78660
     13       2.00000         -10.171712         -276.78637
     14       2.00000         -10.171697         -276.78595
     15       2.00000         -10.171594         -276.78315
     16       2.00000         -10.171463         -276.77959
     17       2.00000         -10.170884         -276.76383
     18       2.00000         -10.170377         -276.75004
     19       2.00000         -10.169739         -276.73269
     20       2.00000         -10.169533         -276.72707
     21       2.00000         -10.167833         -276.68081
     22       2.00000         -10.165790         -276.62522
     23       2.00000         -10.164583         -276.59237
     24       2.00000         -10.164525         -276.59079
     25       2.00000         -10.164246         -276.58320
     26       2.00000         -10.164184         -276.58151
     27       2.00000         -10.163929         -276.57459
     28       2.00000         -10.163873         -276.57306
     29       2.00000         -10.163809         -276.57132
     30       2.00000         -10.163604         -276.56573
     31       2.00000         -10.163573         -276.56490
     32       2.00000         -10.163361         -276.55913
     33       2.00000         -10.163267         -276.55657
     34       2.00000         -10.163138         -276.55306
     35       2.00000         -10.162702         -276.54118
     36       2.00000         -10.162465         -276.53476
     37       2.00000         -10.162357         -276.53181
     38       2.00000         -10.161778         -276.51604
     39       2.00000         -10.161748         -276.51524
     40       2.00000         -10.161458         -276.50733
     41       2.00000          -1.023635          -27.85453
     42       2.00000          -1.017057          -27.67552
     43       2.00000          -1.006206          -27.38027
     44       2.00000          -0.992943          -27.01935
     45       2.00000          -0.977762          -26.60626
     46       2.00000          -0.971214          -26.42809
     47       2.00000          -0.961170          -26.15477
     48       2.00000          -0.952416          -25.91655
     49       2.00000          -0.951722          -25.89768
     50       2.00000          -0.927067          -25.22679
     51       2.00000          -0.902776          -24.56577
     52       2.00000          -0.899143          -24.46694
     53       2.00000          -0.887394          -24.14722
     54       2.00000          -0.884476          -24.06781
     55       2.00000          -0.881424          -23.98476
     56       2.00000          -0.877374          -23.87456
     57       2.00000          -0.872541          -23.74304
     58       2.00000          -0.865902          -23.56240
     59       2.00000          -0.854424          -23.25006
     60       2.00000          -0.825195          -22.45469
     61       2.00000          -0.795603          -21.64946
     62       2.00000          -0.786794          -21.40975
     63       2.00000          -0.784426          -21.34531
     64       2.00000          -0.775283          -21.09652
     65       2.00000          -0.772191          -21.01240
     66       2.00000          -0.761684          -20.72648
     67       2.00000          -0.752986          -20.48978
     68       2.00000          -0.751249          -20.44254
     69       2.00000          -0.749302          -20.38956
     70       2.00000          -0.729491          -19.85045
     71       2.00000          -0.709777          -19.31402
     72       2.00000          -0.692397          -18.84108
     73       2.00000          -0.678030          -18.45014
     74       2.00000          -0.676351          -18.40444
     75       2.00000          -0.674498          -18.35402
     76       2.00000          -0.672429          -18.29773
     77       2.00000          -0.661247          -17.99345
     78       2.00000          -0.658810          -17.92712
     79       2.00000          -0.643018          -17.49740
     80       2.00000          -0.642494          -17.48316
     81       2.00000          -0.640550          -17.43024
     82       2.00000          -0.622202          -16.93097
     83       2.00000          -0.621295          -16.90629
     84       2.00000          -0.616588          -16.77822
     85       2.00000          -0.607876          -16.54116
     86       2.00000          -0.604995          -16.46276
     87       2.00000          -0.602194          -16.38653
     88       2.00000          -0.600978          -16.35346
     89       2.00000          -0.590195          -16.06003
     90       2.00000          -0.589741          -16.04767
     91       2.00000          -0.582807          -15.85898
     92       2.00000          -0.579286          -15.76319
     93       2.00000          -0.574236          -15.62575
     94       2.00000          -0.567866          -15.45241
     95       2.00000          -0.557686          -15.17542
     96       2.00000          -0.555728          -15.12213
     97       2.00000          -0.545226          -14.83635
     98       2.00000          -0.544100          -14.80571
     99       2.00000          -0.541404          -14.73234
    100       2.00000          -0.540073          -14.69613
    101       2.00000          -0.538663          -14.65777
    102       2.00000          -0.536533          -14.59981
    103       2.00000          -0.526393          -14.32390
    104       2.00000          -0.525857          -14.30931
    105       2.00000          -0.525083          -14.28824
    106       2.00000          -0.522491          -14.21770
    107       2.00000          -0.514719          -14.00621
    108       2.00000          -0.512154          -13.93641
    109       2.00000          -0.504665          -13.73262
    110       2.00000          -0.503067          -13.68916
    111       2.00000          -0.492209          -13.39370
    112       2.00000          -0.491191          -13.36600
    113       2.00000          -0.488005          -13.27929
    114       2.00000          -0.485017          -13.19800
    115       2.00000          -0.483588          -13.15910
    116       2.00000          -0.475199          -12.93081
    117       2.00000          -0.470336          -12.79849
    118       2.00000          -0.468982          -12.76165
    119       2.00000          -0.456937          -12.43389
    120       2.00000          -0.440456          -11.98542
    121       2.00000          -0.417015          -11.34757
    122       2.00000          -0.410259          -11.16372
    123       2.00000          -0.401383          -10.92219
    124       2.00000          -0.399390          -10.86797
    125       2.00000          -0.396209          -10.78141
    126       2.00000          -0.394186          -10.72634
    127       2.00000          -0.391228          -10.64585
    128       2.00000          -0.381964          -10.39377
    129       2.00000          -0.360879           -9.82002
    130       2.00000          -0.327596           -8.91435
    131       0.00000          -0.285025           -7.75593
    132       0.00000          -0.251592           -6.84618
    133       0.00000          -0.230982           -6.28535
    134       0.00000          -0.223853           -6.09136
    135       0.00000          -0.219699           -5.97831
    136       0.00000          -0.217440           -5.91686
    137       0.00000          -0.208565           -5.67534
    138       0.00000          -0.200596           -5.45848
    139       0.00000          -0.198720           -5.40746
    140       0.00000          -0.189264           -5.15015
    141       0.00000          -0.158039           -4.30047
    142       0.00000          -0.143092           -3.89373
    143       0.00000          -0.118466           -3.22362
    144       0.00000          -0.114385           -3.11258
    145       0.00000          -0.093220           -2.53665
    146       0.00000          -0.078449           -2.13470
    147       0.00000          -0.074977           -2.04021
    148       0.00000          -0.073201           -1.99191
    149       0.00000          -0.069046           -1.87883
    150       0.00000          -0.062554           -1.70219
    151       0.00000          -0.059534           -1.62001
    152       0.00000          -0.058782           -1.59953
    153       0.00000          -0.052851           -1.43816
    154       0.00000          -0.049030           -1.33419
    155       0.00000          -0.045897           -1.24893
    156       0.00000          -0.038213           -1.03984
    157       0.00000          -0.026592           -0.72361
    158       0.00000          -0.026234           -0.71387
    159       0.00000          -0.023196           -0.63120
    160       0.00000          -0.018391           -0.50044
    161       0.00000          -0.017497           -0.47613
    162       0.00000          -0.012377           -0.33681
    163       0.00000          -0.011227           -0.30549
    164       0.00000          -0.009247           -0.25162
    165       0.00000          -0.002749           -0.07482
    166       0.00000          -0.002097           -0.05707
    167       0.00000           0.000920            0.02504
    168       0.00000           0.001267            0.03447
    169       0.00000           0.002083            0.05668
    170       0.00000           0.004545            0.12368
    171       0.00000           0.009579            0.26065
    172       0.00000           0.009743            0.26513
    173       0.00000           0.019200            0.52245
    174       0.00000           0.019860            0.54042
    175       0.00000           0.020178            0.54908
    176       0.00000           0.022394            0.60937
    177       0.00000           0.024880            0.67702
    178       0.00000           0.029082            0.79136
    179       0.00000           0.029946            0.81488
    180       0.00000           0.032676            0.88917
    181       0.00000           0.033829            0.92054
    182       0.00000           0.036646            0.99718
    183       0.00000           0.039030            1.06205
    184       0.00000           0.040358            1.09821
    185       0.00000           0.043410            1.18123
    186       0.00000           0.047100            1.28166
    187       0.00000           0.047788            1.30038
    188       0.00000           0.053488            1.45549
    189       0.00000           0.054189            1.47455
    190       0.00000           0.057042            1.55218
    191       0.00000           0.059690            1.62426
    192       0.00000           0.060564            1.64803
    193       0.00000           0.060850            1.65580
    194       0.00000           0.061765            1.68071
    195       0.00000           0.066514            1.80993
    196       0.00000           0.070489            1.91810
    197       0.00000           0.071276            1.93953
    198       0.00000           0.072274            1.96668
    199       0.00000           0.075047            2.04213
    200       0.00000           0.077711            2.11462
    201       0.00000           0.077988            2.12216
    202       0.00000           0.087052            2.36881
    203       0.00000           0.088813            2.41671
    204       0.00000           0.090597            2.46528
    205       0.00000           0.091824            2.49866
    206       0.00000           0.094120            2.56113
    207       0.00000           0.095197            2.59043
    208       0.00000           0.096194            2.61757
    209       0.00000           0.097657            2.65738
    210       0.00000           0.101785            2.76971
    211       0.00000           0.102939            2.80110
    212       0.00000           0.106421            2.89587
    213       0.00000           0.107194            2.91690
    214       0.00000           0.111116            3.02363
    215       0.00000           0.116416            3.16784
    216       0.00000           0.118021            3.21151
    217       0.00000           0.123346            3.35641
    218       0.00000           0.124594            3.39037
    219       0.00000           0.130890            3.56169
    220       0.00000           0.131546            3.57954
    221       0.00000           0.133284            3.62684
    222       0.00000           0.134198            3.65171
    223       0.00000           0.137103            3.73077
    224       0.00000           0.138432            3.76694
    225       0.00000           0.141178            3.84164
    226       0.00000           0.141986            3.86363
    227       0.00000           0.148276            4.03480
    228       0.00000           0.149129            4.05801
    229       0.00000           0.149337            4.06367
    230       0.00000           0.149963            4.08071
    231       0.00000           0.155139            4.22156
    232       0.00000           0.155657            4.23565
    233       0.00000           0.161432            4.39280
    234       0.00000           0.162309            4.41666
    235       0.00000           0.163050            4.43682
    236       0.00000           0.163382            4.44586
    237       0.00000           0.163970            4.46184
    238       0.00000           0.164759            4.48331
    239       0.00000           0.168122            4.57483
    240       0.00000           0.171877            4.67702
    241       0.00000           0.175077            4.76408
    242       0.00000           0.177975            4.84295
    243       0.00000           0.179818            4.89310
    244       0.00000           0.182800            4.97425
    245       0.00000           0.185496            5.04761
    246       0.00000           0.188383            5.12617
    247       0.00000           0.194540            5.29370
    248       0.00000           0.198548            5.40276
    249       0.00000           0.200753            5.46276
    250       0.00000           0.202109            5.49967
    251       0.00000           0.203752            5.54439
    252       0.00000           0.204149            5.55517
    253       0.00000           0.206281            5.61320
    254       0.00000           0.206870            5.62922
    255       0.00000           0.207142            5.63661
    256       0.00000           0.209053            5.68862
    257       0.00000           0.214572            5.83879
    258       0.00000           0.216142            5.88152
    259       0.00000           0.220482            5.99963
    260       0.00000           0.226010            6.15005
    261       0.00000           0.227802            6.19880
    262       0.00000           0.228651            6.22192
    263       0.00000           0.229509            6.24527
    264       0.00000           0.233367            6.35024
    265       0.00000           0.237275            6.45657
    266       0.00000           0.240877            6.55459
    267       0.00000           0.241980            6.58462
    268       0.00000           0.242227            6.59133
    269       0.00000           0.243240            6.61889
    270       0.00000           0.244949            6.66539
    271       0.00000           0.250951            6.82871
    272       0.00000           0.257758            7.01396
    273       0.00000           0.260397            7.08576
    274       0.00000           0.271831            7.39689
    275       0.00000           0.272900            7.42599
    276       0.00000           0.273462            7.44127
    277       0.00000           0.276129            7.51387
    278       0.00000           0.277264            7.54473
    279       0.00000           0.279117            7.59516
    280       0.00000           0.280188            7.62430

  Highest occupied state (VBM) at     -8.91434931 eV
  | Occupation number:      2.00000000

  Lowest unoccupied state (CBM) at    -7.75593033 eV
  | Occupation number:      0.00000000

  Overall HOMO-LUMO gap:      1.15841898 eV.
  Calculating total energy contributions from superposition of free atom densities.

  Total energy components:
  | Sum of eigenvalues            :        -930.29157237 Ha      -25314.52167281 eV
  | XC energy correction          :        -219.44160225 Ha       -5971.30981418 eV
  | XC potential correction       :         281.87778516 Ha        7670.28479387 eV
  | Free-atom electrostatic energy:        -669.69609982 Ha      -18223.35807041 eV
  | Hartree energy correction     :           0.00000000 Ha           0.00000000 eV
  | Entropy correction            :           0.00000000 Ha           0.00000000 eV
  | ---------------------------
  | Total energy                  :       -1537.55148929 Ha      -41838.90476352 eV
  | Total energy, T -> 0          :       -1537.55148929 Ha      -41838.90476352 eV  <-- do not rely on this value for anything but (periodic) metals
  | Electronic free energy        :       -1537.55148929 Ha      -41838.90476352 eV

  Derived energy quantities:
  | Kinetic energy                :        1524.58163810 Ha       41485.97715586 eV
  | Electrostatic energy          :       -2842.69152513 Ha      -77353.57210521 eV
  | Energy correction for multipole
  | error in Hartree potential    :           0.00000000 Ha           0.00000000 eV
  | Sum of eigenvalues per atom                           :        -421.90869455 eV
  | Total energy (T->0) per atom                          :        -697.31507939 eV  <-- do not rely on this value for anything but (periodic) metals
  | Electronic free energy per atom                       :        -697.31507939 eV
  Initialize hartree_potential_storage
  Max. number of atoms included in rho_multipole:           60

  End scf initialization - timings             :  max(cpu_time)    wall_clock(cpu1)
  | Time for scf. initialization               :        9.473 s           9.537 s
  | Boundary condition initialization          :        0.001 s           0.003 s
  | Integration                                :        7.447 s           7.453 s
  | Solution of K.-S. eqns.                    :        0.355 s           0.375 s
  | Grid partitioning                          :        0.739 s           0.743 s
  | Preloading free-atom quantities on grid    :        0.013 s           0.017 s
  | Free-atom superposition energy             :        0.079 s           0.079 s
  | Total energy evaluation                    :        0.001 s           0.005 s

  Partial memory accounting:
  | Current value for overall tracked memory usage on task 0  :           7.156 MB
  | Peak value for overall tracked memory usage on task 0     :          30.100 MB after allocating zora_vector2
  | Largest tracked array allocation on task 0 so far         :           6.801 MB  when allocating hamiltonian_shell
  Note:  These values currently only include a subset of arrays which are explicitly tracked.
  The "true" memory usage will be greater.
------------------------------------------------------------

------------------------------------------------------------
          Begin self-consistency iteration #    1

  Date     :  20210620, Time     :  174405.870
------------------------------------------------------------
  Evaluating new KS density.
  Integration grid: deviation in total charge (<rho> - N_e) =   1.136868E-13
  Pulay mixing of updated and previous charge densities.

  Evaluating partitioned Hartree potential by multipole expansion.
  | Analytical far-field extrapolation by fixed multipoles:
  | Hartree multipole sum: apparent total charge =  -0.795302E-03
  Summing up the Hartree potential with load balancing.
  Time summed over all CPUs for potential: real work       36.756 s, elapsed       57.671 s
  | RMS charge density error from multipole expansion :   0.155824E-01

  Start compute_balanced_batch_distribution
  Done load balancing, time needed:      0.009 s
  Integrating Hamiltonian matrix: batch-based integration with load balancing
  Time summed over all CPUs for integration: real work      207.042 s, elapsed      231.204 s
  Time get_set_full_local_matrix_scalapack:     0.021444 s
  Start compute_balanced_batch_distribution
  Done load balancing, time needed:      0.009 s

  Updating Kohn-Sham eigenvalues and eigenvectors using ELSI and the ELPA eigensolver.
  Finished transformation to standard eigenproblem
  | Time :     0.028 s
  Starting ELPA eigensolver
  Finished solving standard eigenproblem
  | Time :     0.142 s
  Finished back-transformation of eigenvectors
  | Time :     0.006 s

  Obtaining occupation numbers and chemical potential using ELSI.
  | Chemical potential (Fermi level):    -5.53098658 eV
  Writing Kohn-Sham eigenvalues.

  State    Occupation    Eigenvalue [Ha]    Eigenvalue [eV]
      1       2.00000          -9.988070         -271.78921
      2       2.00000          -9.987825         -271.78253
      3       2.00000          -9.987792         -271.78165
      4       2.00000          -9.987467         -271.77281
      5       2.00000          -9.987405         -271.77113
      6       2.00000          -9.987211         -271.76583
      7       2.00000          -9.986182         -271.73784
      8       2.00000          -9.986160         -271.73723
      9       2.00000          -9.985409         -271.71679
     10       2.00000          -9.985329         -271.71461
     11       2.00000          -9.985255         -271.71261
     12       2.00000          -9.984825         -271.70090
     13       2.00000          -9.983748         -271.67160
     14       2.00000          -9.983702         -271.67035
     15       2.00000          -9.983069         -271.65312
     16       2.00000          -9.983060         -271.65289
     17       2.00000          -9.978606         -271.53169
     18       2.00000          -9.976998         -271.48793
     19       2.00000          -9.968951         -271.26896
     20       2.00000          -9.967305         -271.22417
     21       2.00000          -9.955579         -270.90509
     22       2.00000          -9.954214         -270.86794
     23       2.00000          -9.953503         -270.84860
     24       2.00000          -9.953293         -270.84289
     25       2.00000          -9.953026         -270.83561
     26       2.00000          -9.952219         -270.81365
     27       2.00000          -9.952056         -270.80923
     28       2.00000          -9.952040         -270.80880
     29       2.00000          -9.951634         -270.79774
     30       2.00000          -9.951048         -270.78178
     31       2.00000          -9.950019         -270.75378
     32       2.00000          -9.949811         -270.74814
     33       2.00000          -9.949672         -270.74435
     34       2.00000          -9.949615         -270.74279
     35       2.00000          -9.948553         -270.71391
     36       2.00000          -9.947748         -270.69200
     37       2.00000          -9.947679         -270.69011
     38       2.00000          -9.947067         -270.67347
     39       2.00000          -9.945869         -270.64087
     40       2.00000          -9.945403         -270.62818
     41       2.00000          -0.887349          -24.14601
     42       2.00000          -0.876698          -23.85618
     43       2.00000          -0.862240          -23.46274
     44       2.00000          -0.847354          -23.05767
     45       2.00000          -0.834938          -22.71983
     46       2.00000          -0.825170          -22.45401
     47       2.00000          -0.815076          -22.17933
     48       2.00000          -0.811551          -22.08343
     49       2.00000          -0.800330          -21.77808
     50       2.00000          -0.786378          -21.39843
     51       2.00000          -0.762678          -20.75352
     52       2.00000          -0.756652          -20.58956
     53       2.00000          -0.748436          -20.36597
     54       2.00000          -0.742465          -20.20349
     55       2.00000          -0.737129          -20.05830
     56       2.00000          -0.732839          -19.94156
     57       2.00000          -0.729098          -19.83978
     58       2.00000          -0.724179          -19.70592
     59       2.00000          -0.708702          -19.28477
     60       2.00000          -0.678395          -18.46008
     61       2.00000          -0.657706          -17.89709
     62       2.00000          -0.652309          -17.75023
     63       2.00000          -0.648082          -17.63521
     64       2.00000          -0.637614          -17.35036
     65       2.00000          -0.633151          -17.22892
     66       2.00000          -0.623524          -16.96695
     67       2.00000          -0.615119          -16.73824
     68       2.00000          -0.611224          -16.63226
     69       2.00000          -0.609973          -16.59821
     70       2.00000          -0.590206          -16.06033
     71       2.00000          -0.570090          -15.51294
     72       2.00000          -0.559915          -15.23606
     73       2.00000          -0.553966          -15.07419
     74       2.00000          -0.537380          -14.62285
     75       2.00000          -0.534458          -14.54335
     76       2.00000          -0.533681          -14.52220
     77       2.00000          -0.533597          -14.51992
     78       2.00000          -0.518438          -14.10740
     79       2.00000          -0.516142          -14.04495
     80       2.00000          -0.505369          -13.75179
     81       2.00000          -0.500220          -13.61168
     82       2.00000          -0.494249          -13.44920
     83       2.00000          -0.488997          -13.30630
     84       2.00000          -0.486060          -13.22637
     85       2.00000          -0.472469          -12.85653
     86       2.00000          -0.467333          -12.71678
     87       2.00000          -0.466079          -12.68266
     88       2.00000          -0.459140          -12.49384
     89       2.00000          -0.448055          -12.19220
     90       2.00000          -0.447157          -12.16777
     91       2.00000          -0.440511          -11.98690
     92       2.00000          -0.440260          -11.98009
     93       2.00000          -0.438093          -11.92113
     94       2.00000          -0.433847          -11.80559
     95       2.00000          -0.433608          -11.79908
     96       2.00000          -0.431150          -11.73219
     97       2.00000          -0.422384          -11.49366
     98       2.00000          -0.421735          -11.47600
     99       2.00000          -0.417589          -11.36318
    100       2.00000          -0.409828          -11.15200
    101       2.00000          -0.407624          -11.09201
    102       2.00000          -0.405343          -11.02994
    103       2.00000          -0.404721          -11.01302
    104       2.00000          -0.403394          -10.97691
    105       2.00000          -0.393736          -10.71410
    106       2.00000          -0.393508          -10.70790
    107       2.00000          -0.385972          -10.50283
    108       2.00000          -0.384823          -10.47156
    109       2.00000          -0.376046          -10.23272
    110       2.00000          -0.375162          -10.20869
    111       2.00000          -0.367285           -9.99433
    112       2.00000          -0.364398           -9.91578
    113       2.00000          -0.353429           -9.61728
    114       2.00000          -0.352819           -9.60068
    115       2.00000          -0.350693           -9.54284
    116       2.00000          -0.348932           -9.49492
    117       2.00000          -0.344449           -9.37292
    118       2.00000          -0.339620           -9.24152
    119       2.00000          -0.332714           -9.05361
    120       2.00000          -0.322175           -8.76682
    121       2.00000          -0.299143           -8.14011
    122       2.00000          -0.290014           -7.89168
    123       2.00000          -0.283081           -7.70302
    124       2.00000          -0.278323           -7.57356
    125       2.00000          -0.271955           -7.40028
    126       2.00000          -0.271001           -7.37432
    127       2.00000          -0.270144           -7.35099
    128       2.00000          -0.263700           -7.17564
    129       2.00000          -0.238146           -6.48029
    130       2.00000          -0.204016           -5.55155
    131       0.00000          -0.165888           -4.51405
    132       0.00000          -0.131317           -3.57332
    133       0.00000          -0.116104           -3.15934
    134       0.00000          -0.108982           -2.96554
    135       0.00000          -0.099822           -2.71629
    136       0.00000          -0.097663           -2.65754
    137       0.00000          -0.085560           -2.32819
    138       0.00000          -0.081396           -2.21490
    139       0.00000          -0.076983           -2.09483
[...]
    110       2.00000          -0.320054           -8.70911
    111       2.00000          -0.312660           -8.50791
    112       2.00000          -0.310621           -8.45244
    113       2.00000          -0.307320           -8.36260
    114       2.00000          -0.303290           -8.25295
    115       2.00000          -0.291257           -7.92552
    116       2.00000          -0.289560           -7.87933
    117       2.00000          -0.285809           -7.77726
    118       2.00000          -0.279581           -7.60778
    119       2.00000          -0.279318           -7.60063
    120       2.00000          -0.272066           -7.40329
    121       2.00000          -0.255005           -6.93903
    122       2.00000          -0.246920           -6.71904
    123       2.00000          -0.238871           -6.50002
    124       2.00000          -0.235278           -6.40224
    125       2.00000          -0.231087           -6.28819
    126       2.00000          -0.228708           -6.22346
    127       2.00000          -0.226527           -6.16413
    128       2.00000          -0.217974           -5.93138
    129       2.00000          -0.194089           -5.28143
    130       2.00000          -0.158883           -4.32343
    131       0.00000          -0.121268           -3.29987
    132       0.00000          -0.086942           -2.36582
    133       0.00000          -0.070644           -1.92233
    134       0.00000          -0.065257           -1.77573
    135       0.00000          -0.055700           -1.51567
    136       0.00000          -0.054761           -1.49014
    137       0.00000          -0.042145           -1.14683
    138       0.00000          -0.037179           -1.01170
    139       0.00000          -0.030955           -0.84234
    140       0.00000          -0.024829           -0.67564
    141       0.00000          -0.009360           -0.25469
    142       0.00000          -0.004955           -0.13482
    143       0.00000          -0.003546           -0.09650
    144       0.00000           0.002772            0.07542
    145       0.00000           0.003863            0.10511
    146       0.00000           0.005181            0.14098
    147       0.00000           0.013657            0.37163
    148       0.00000           0.013927            0.37899
    149       0.00000           0.017678            0.48104
    150       0.00000           0.026241            0.71404
    151       0.00000           0.027317            0.74332
    152       0.00000           0.040827            1.11097
    153       0.00000           0.043487            1.18335
    154       0.00000           0.045935            1.24996
    155       0.00000           0.050213            1.36638
    156       0.00000           0.053453            1.45452
    157       0.00000           0.065696            1.78768
    158       0.00000           0.071740            1.95216
    159       0.00000           0.074768            2.03455
    160       0.00000           0.075540            2.05555
    161       0.00000           0.078256            2.12946
    162       0.00000           0.080853            2.20013
    163       0.00000           0.086020            2.34073
    164       0.00000           0.096745            2.63257
    165       0.00000           0.097399            2.65036
    166       0.00000           0.099860            2.71733
    167       0.00000           0.101243            2.75497
    168       0.00000           0.104700            2.84904
    169       0.00000           0.105770            2.87814
    170       0.00000           0.107505            2.92535
    171       0.00000           0.108693            2.95770
    172       0.00000           0.113804            3.09676
    173       0.00000           0.117729            3.20357
    174       0.00000           0.122649            3.33746
    175       0.00000           0.127005            3.45598
    176       0.00000           0.130694            3.55636
    177       0.00000           0.133512            3.63306
    178       0.00000           0.134515            3.66034
    179       0.00000           0.136259            3.70780
    180       0.00000           0.141008            3.83702
    181       0.00000           0.141616            3.85356
    182       0.00000           0.145083            3.94791
    183       0.00000           0.150778            4.10288
    184       0.00000           0.152085            4.13845
    185       0.00000           0.154703            4.20969
    186       0.00000           0.158126            4.30283
    187       0.00000           0.158788            4.32084
    188       0.00000           0.161647            4.39864
    189       0.00000           0.163290            4.44334
    190       0.00000           0.163337            4.44463
    191       0.00000           0.165533            4.50439
    192       0.00000           0.170268            4.63321
    193       0.00000           0.171534            4.66768
    194       0.00000           0.173120            4.71084
    195       0.00000           0.175689            4.78073
    196       0.00000           0.176066            4.79101
    197       0.00000           0.177519            4.83054
    198       0.00000           0.179471            4.88365
    199       0.00000           0.180404            4.90905
    200       0.00000           0.183882            5.00368
    201       0.00000           0.185693            5.05295
    202       0.00000           0.185799            5.05585
    203       0.00000           0.188728            5.13554
    204       0.00000           0.197341            5.36992
    205       0.00000           0.198978            5.41447
    206       0.00000           0.199264            5.42224
    207       0.00000           0.201295            5.47750
    208       0.00000           0.203334            5.53300
    209       0.00000           0.204718            5.57067
    210       0.00000           0.205824            5.60077
    211       0.00000           0.206890            5.62976
    212       0.00000           0.209432            5.69893
    213       0.00000           0.213701            5.81510
    214       0.00000           0.216790            5.89916
    215       0.00000           0.219050            5.96065
    216       0.00000           0.222763            6.06168
    217       0.00000           0.226462            6.16234
    218       0.00000           0.230555            6.27373
    219       0.00000           0.231600            6.30216
    220       0.00000           0.233952            6.36616
    221       0.00000           0.234442            6.37949
    222       0.00000           0.235218            6.40062
    223       0.00000           0.237394            6.45982
    224       0.00000           0.238111            6.47932
    225       0.00000           0.241672            6.57624
    226       0.00000           0.248200            6.75387
    227       0.00000           0.251157            6.83434
    228       0.00000           0.254077            6.91378
    229       0.00000           0.254515            6.92572
    230       0.00000           0.254856            6.93499
    231       0.00000           0.256757            6.98671
    232       0.00000           0.260851            7.09812
    233       0.00000           0.262729            7.14922
    234       0.00000           0.266376            7.24847
    235       0.00000           0.269883            7.34390
    236       0.00000           0.271106            7.37718
    237       0.00000           0.273171            7.43337
    238       0.00000           0.277949            7.56338
    239       0.00000           0.279955            7.61796
    240       0.00000           0.281239            7.65289
    241       0.00000           0.282771            7.69458
    242       0.00000           0.284123            7.73138
    243       0.00000           0.284998            7.75520
    244       0.00000           0.286796            7.80411
    245       0.00000           0.291895            7.94285
    246       0.00000           0.293004            7.97305
    247       0.00000           0.295072            8.02933
    248       0.00000           0.300619            8.18025
    249       0.00000           0.302984            8.24463
    250       0.00000           0.306697            8.34565
    251       0.00000           0.312661            8.50795
    252       0.00000           0.313194            8.52245
    253       0.00000           0.315734            8.59155
    254       0.00000           0.321573            8.75045
    255       0.00000           0.322317            8.77069
    256       0.00000           0.322952            8.78797
    257       0.00000           0.326011            8.87120
    258       0.00000           0.326322            8.87969
    259       0.00000           0.331993            9.03398
    260       0.00000           0.334766            9.10944
    261       0.00000           0.335498            9.12936
    262       0.00000           0.338910            9.22222
    263       0.00000           0.344697            9.37968
    264       0.00000           0.345119            9.39118
    265       0.00000           0.345948            9.41373
    266       0.00000           0.354296            9.64089
    267       0.00000           0.356137            9.69099
    268       0.00000           0.360285            9.80385
    269       0.00000           0.360458            9.80857
    270       0.00000           0.361066            9.82509
    271       0.00000           0.366012            9.95968
    272       0.00000           0.367821           10.00891
    273       0.00000           0.372130           10.12617
    274       0.00000           0.376857           10.25480
    275       0.00000           0.379658           10.33102
    276       0.00000           0.380480           10.35340
    277       0.00000           0.381729           10.38738
    278       0.00000           0.383213           10.42775
    279       0.00000           0.397265           10.81014
    280       0.00000           0.400847           10.90760

  Highest occupied state (VBM) at     -4.32343498 eV
  | Occupation number:      2.00000000

  Lowest unoccupied state (CBM) at    -3.29987369 eV
  | Occupation number:      0.00000000

  Overall HOMO-LUMO gap:      1.02356129 eV.

  Total energy components:
  | Sum of eigenvalues            :        -874.87648812 Ha      -23806.60050811 eV
  | XC energy correction          :        -223.23427593 Ha       -6074.51371581 eV
  | XC potential correction       :         286.77932133 Ha        7803.66237939 eV
  | Free-atom electrostatic energy:        -669.69609982 Ha      -18223.35807041 eV
  | Hartree energy correction     :         -54.75392699 Ha       -1489.93016022 eV
  | Entropy correction            :           0.00000000 Ha           0.00000000 eV
  | ---------------------------
  | Total energy                  :       -1535.78146952 Ha      -41790.74007516 eV
  | Total energy, T -> 0          :       -1535.78146952 Ha      -41790.74007516 eV  <-- do not rely on this value for anything but (periodic) metals
  | Electronic free energy        :       -1535.78146952 Ha      -41790.74007516 eV

  Derived energy quantities:
  | Kinetic energy                :        1531.67592599 Ha       41679.02255145 eV
  | Electrostatic energy          :       -2844.22311958 Ha      -77395.24891079 eV
  | Energy correction for multipole
  | error in Hartree potential    :          -0.19390840 Ha          -5.27651610 eV
  | Sum of eigenvalues per atom                           :        -396.77667514 eV
  | Total energy (T->0) per atom                          :        -696.51233459 eV  <-- do not rely on this value for anything but (periodic) metals
  | Electronic free energy per atom                       :        -696.51233459 eV
  End evaluation of scaled ZORA corrections.
  | Time for scaled ZORA corrections           :        6.876 s           6.886 s
------------------------------------------------------------

  Energy and forces in a compact form:
  | Total energy uncorrected      :         -0.417907400751607E+05 eV
  | Total energy corrected        :         -0.417907400751607E+05 eV  <-- do not rely on this value for anything but (periodic) metals
  | Electronic free energy        :         -0.417907400751607E+05 eV

  ------------------------------------ 
  Start decomposition of the XC Energy 
  ------------------------------------ 
  X and C from original XC functional choice 
  Hartree-Fock Energy :          0.000000000 Ha              0.000000000 eV
  X Energy            :       -214.454902058 Ha          -5835.614797810 eV
  C Energy            :         -8.779373868 Ha           -238.898918005 eV
  Total XC Energy     :       -223.234275926 Ha          -6074.513715815 eV
  ------------------------------------ 
  LDA X and C from self-consistent density 
  X Energy LDA        :       -194.291408120 Ha          -5286.938211387 eV
  C Energy LDA        :        -16.864496034 Ha           -458.906285983 eV
  ------------------------------------ 
  End decomposition of the XC Energy 
  ------------------------------------ 

------------------------------------------------------------

------------------------------------------------------------------------------
  Final output of selected total energy values:

  The following output summarizes some interesting total energy values
  at the end of a run (AFTER all relaxation, molecular dynamics, etc.).

  | Total energy of the DFT / Hartree-Fock s.c.f. calculation      :         -41790.740075161 eV
  | Final zero-broadening corrected energy (caution - metals only) :         -41790.740075161 eV
  | For reference only, the value of 1 Hartree used in FHI-aims is :             27.211384500 eV

  Before relying on these values, please be sure to understand exactly which
  total energy value is referred to by a given number. Different objects may
  all carry the same name 'total energy'. Definitions:

  Total energy of the DFT / Hartree-Fock s.c.f. calculation:
  | Note that this energy does not include ANY quantities calculated after the
  | s.c.f. cycle, in particular not ANY RPA, MP2, etc. many-body perturbation terms.
  | Scalar relativistic effects have been included in the 'scaled ZORA' approximation.

  Final zero-broadening corrected energy:
  | For metallic systems only, a broadening of the occupation numbers at the Fermi
  | level can be extrapolated back to zero broadening by an electron-gas inspired
  | formula. For all systems that are not real metals, this value can be
  | meaningless and should be avoided.

------------------------------------------------------------------------------
  Methods described in the following list of references were used in this FHI-aims run.
  If you publish the results, please make sure to cite these reference if they apply.
  FHI-aims is an academic code, and for our developers (often, Ph.D. students
  and postdocs), scientific credit in the community is essential.
  Thank you for helping us!

  For any use of FHI-aims, please cite:

    Volker Blum, Ralf Gehrke, Felix Hanke, Paula Havu, Ville Havu,
    Xinguo Ren, Karsten Reuter, and Matthias Scheffler
    'Ab initio molecular simulations with numeric atom-centered orbitals'
    Computer Physics Communications 180, 2175-2196 (2009)
    http://dx.doi.org/10.1016/j.cpc.2009.06.022


  The scalable eigensolver library ELPA was used in your run.
  ELPA is essential especially for large systems on hundreds or thousands of CPUs.
  For ELPA, please cite:

    Andreas Marek, Volker Blum, Rainer Johanni, Ville Havu, Bruno Lang,
    Thomas Auckenthaler, Alexander Heinecke, Hans-Joachim Bungartz, and Hermann Lederer,
    'The ELPA Library - Scalable Parallel Eigenvalue Solutions
    for Electronic Structure Theory and Computational Science'
    The Journal of Physics: Condensed Matter 26, 213201 (2014).
    http://dx.doi.org/10.1088/0953-8984/26/21/213201


  The ELSI infrastructure was used in your run to solve the Kohn-Sham electronic structure.
  Please check out http://elsi-interchange.org to learn more.
  If scalability is important for your project, please acknowledge ELSI by citing:

    V. W-z. Yu, F. Corsetti, A. Garcia, W. P. Huhn, M. Jacquelin, W. Jia,
    B. Lange, L. Lin, J. Lu, W. Mi, A. Seifitokaldani, A. Vazquez-Mayagoitia,
    C. Yang, H. Yang, and V. Blum
    'ELSI: A unified software interface for Kohn-Sham electronic structure solvers'
    Computer Physics Communications 222, 267-285 (2018).
    http://dx.doi.org/10.1016/j.cpc.2017.09.007


  For the real-space grid partitioning and parallelization used in this calculation, please cite:

    Ville Havu, Volker Blum, Paula Havu, and Matthias Scheffler,
    'Efficient O(N) integration for all-electron electronic structure calculation'
    'using numerically tabulated basis functions'
    Journal of Computational Physics 228, 8367-8379 (2009).
    http://dx.doi.org/10.1016/j.jcp.2009.08.008

  Of course, there are many other important community references, e.g., those cited in the
  above references. Our list is limited to references that describe implementations in the
  FHI-aims code. The reason is purely practical (length of this list) - please credit others as well.

------------------------------------------------------------
          Leaving FHI-aims.
          Date     :  20210620, Time     :  174614.513

          Computational steps:
          | Number of self-consistency cycles          :           18
          | Number of SCF (re)initializations          :            1

          Detailed time accounting                     :  max(cpu_time)    wall_clock(cpu1)
          | Total time                                 :      138.362 s         138.550 s
          | Preparation time                           :        0.185 s           0.183 s
          | Boundary condition initalization           :        0.001 s           0.003 s
          | Grid partitioning                          :        0.739 s           0.743 s
          | Preloading free-atom quantities on grid    :        0.013 s           0.017 s
          | Free-atom superposition energy             :        0.079 s           0.079 s
          | Total time for integrations                :       77.625 s          77.631 s
          | Total time for solution of K.-S. equations :        4.541 s           4.570 s
          | Total time for density update              :       32.998 s          32.940 s
          | Total time for mixing                      :        0.182 s           0.188 s
          | Total time for Hartree multipole update    :        0.219 s           0.224 s
          | Total time for Hartree multipole sum       :       13.800 s          13.801 s
          | Total time for total energy evaluation     :        0.009 s           0.033 s
          | Total time for scaled ZORA corrections     :        6.876 s           6.886 s

          Partial memory accounting:
          | Residual value for overall tracked memory usage across tasks :     0.000000 MB (should be 0.000000 MB)
          | Peak values for overall tracked memory usage (after allocating zora_vector2):
          |   Minimum:       27.903 MB (on task 49)
          |   Maximum:       36.266 MB (on task 25)
          |   Average:       32.080 MB
          | Largest tracked array allocation (hamiltonian_shell):
          |   Minimum:        6.801 MB (on task  1)
          |   Maximum:        7.134 MB (on task  4)
          |   Average:        6.829 MB
          Note:  These values currently only include a subset of arrays which are explicitly tracked.
          The "true" memory usage will be greater.

          Have a nice day.
------------------------------------------------------------
