  MPI-parallelism will be employed.
------------------------------------------------------------
          Invoking FHI-aims ...
          Version 180607
          Git rev. (modified): 6724847 Fix JSON memory corruption in scf_solver
          Compiled on 2018/06/27 at 16:00:31 on host coe.psc.edu.

          When using FHI-aims, please cite the following reference:

          Volker Blum, Ralf Gehrke, Felix Hanke, Paula Havu,
          Ville Havu, Xinguo Ren, Karsten Reuter, and Matthias Scheffler,
          'Ab Initio Molecular Simulations with Numeric Atom-Centered Orbitals',
          Computer Physics Communications 180, 2175-2196 (2009)

          For any questions about FHI-aims, please visit the aimsclub website
          with its forums and wiki. Contributions to both the forums and the
          wiki are warmly encouraged - they are for you, and everyone is welcome there.

------------------------------------------------------------



  Date     :  20210620, Time     :  173205.387
  Time zero on CPU 1             :   0.271342000000000E+00  s.
  Internal wall clock time zero  :           393442325.387  s.

  FHI-aims created a unique identifier for this run for later identification
  aims_uuid : 98AA4961-1DF3-45A9-ACD5-92A52B51B44F

  Using       56 parallel tasks.
  Task        0 on host d021 reporting.
  Task        1 on host d021 reporting.
  Task        2 on host d021 reporting.
  Task        3 on host d021 reporting.
  Task        4 on host d021 reporting.
  Task        5 on host d021 reporting.
  Task        6 on host d021 reporting.
  Task        7 on host d021 reporting.
  Task        8 on host d021 reporting.
  Task        9 on host d021 reporting.
  Task       10 on host d021 reporting.
  Task       11 on host d021 reporting.
  Task       12 on host d021 reporting.
  Task       13 on host d021 reporting.
  Task       14 on host d021 reporting.
  Task       15 on host d021 reporting.
  Task       16 on host d021 reporting.
  Task       17 on host d021 reporting.
  Task       18 on host d021 reporting.
  Task       19 on host d021 reporting.
  Task       20 on host d021 reporting.
  Task       21 on host d021 reporting.
  Task       22 on host d021 reporting.
  Task       23 on host d021 reporting.
  Task       24 on host d021 reporting.
  Task       25 on host d021 reporting.
  Task       26 on host d021 reporting.
  Task       27 on host d021 reporting.
  Task       28 on host d021 reporting.
  Task       29 on host d021 reporting.
  Task       30 on host d021 reporting.
  Task       31 on host d021 reporting.
  Task       32 on host d021 reporting.
  Task       33 on host d021 reporting.
  Task       34 on host d021 reporting.
  Task       35 on host d021 reporting.
  Task       36 on host d021 reporting.
  Task       37 on host d021 reporting.
  Task       38 on host d021 reporting.
  Task       39 on host d021 reporting.
  Task       40 on host d021 reporting.
  Task       41 on host d021 reporting.
  Task       42 on host d021 reporting.
  Task       43 on host d021 reporting.
  Task       44 on host d021 reporting.
  Task       45 on host d021 reporting.
  Task       46 on host d021 reporting.
  Task       47 on host d021 reporting.
  Task       48 on host d021 reporting.
  Task       49 on host d021 reporting.
  Task       50 on host d021 reporting.
  Task       51 on host d021 reporting.
  Task       52 on host d021 reporting.
  Task       53 on host d021 reporting.
  Task       54 on host d021 reporting.
  Task       55 on host d021 reporting.

  Performing system and environment tests:
  *** Environment variable OMP_NUM_THREADS is not set
  *** For performance reasons you might want to set it to 1
  | Stacksize not measured: no C compiler
  | Checking for scalapack...
  | Testing pdtran()...
  | All pdtran() tests passed.

  Obtaining array dimensions for all initial allocations:
  
  -----------------------------------------------------------------------
  Parsing control.in (first pass over file, find array dimensions only).
  The contents of control.in will be repeated verbatim below
  unless switched off by setting 'verbatim_writeout .false.' .
  in the first line of control.in .
  -----------------------------------------------------------------------
  
  #===============================================================================
  # FHI-aims file: ./Runs/es/control.in
  # Created using the Atomic Simulation Environment (ASE)
  # Mon Jan 13 16:04:38 2020
  #===============================================================================
  xc                                 pbe
  relativistic                       zora scalar 1e-12
  occupation_type                    gaussian 0.0001
  load_balancing                     .true.
  KS_method                          scalapack_fast
  mixer                              pulay
  n_max_pulay                        5
  charge_mix_param                   0.4
  sc_accuracy_etot                   1e-6
  sc_accuracy_eev                    1e-4
  sc_accuracy_rho                    1e-6
  sc_iter_limit                      100
  prodbas_threshold                  1e-4
  basis_threshold                    1e-5
  override_illconditioning           .true.
  use_logsbt                         .true.
  spin                               none
  charge                             0
  #===============================================================================
  
  ################################################################################
  #
  #  FHI-aims code project
  # Volker Blum, Fritz Haber Institute Berlin, 2009
  #
  #  Suggested "tight" defaults for H atom (to be pasted into control.in file)
  #
  ################################################################################
    species        H
  #     global species definitions
      nucleus             1
      mass                1.00794
  #
      l_hartree           6
  #
      cut_pot             4.0  2.0  1.0
      basis_dep_cutoff    1e-4
  #
      radial_base         24 7.0
      radial_multiplier   2
      angular_grids       specified
        division   0.1930   50
        division   0.3175  110
        division   0.4293  194
        division   0.5066  302
        division   0.5626  434
  #      division   0.5922  590
  #      division   0.6227  974
  #      division   0.6868 1202
  #      outer_grid  770
        outer_grid  434
  ################################################################################
  #
  #  Definition of "minimal" basis
  #
  ################################################################################
  #     valence basis states
      valence      1  s   1.
  #     ion occupancy
      ion_occ      1  s   0.5
  ################################################################################
  #
  #  Suggested additional basis functions. For production calculations,
  #  uncomment them one after another (the most important basis functions are
  #  listed first).
  #
  #  Basis constructed for dimers: 0.5 A, 0.7 A, 1.0 A, 1.5 A, 2.5 A
  #
  ################################################################################
  #  "First tier" - improvements: -1014.90 meV to -62.69 meV
       hydro 2 s 2.1
       hydro 2 p 3.5
  #  "Second tier" - improvements: -12.89 meV to -1.83 meV
       hydro 1 s 0.85
       hydro 2 p 3.7
       hydro 2 s 1.2
       hydro 3 d 7
  #  "Third tier" - improvements: -0.25 meV to -0.12 meV
  #     hydro 4 f 11.2
  #     hydro 3 p 4.8
  #     hydro 4 d 9
  #     hydro 3 s 3.2
  ################################################################################
  #
  # For methods that use the localized form of the "resolution of identity" for
  # the two-electron Coulomb operator (RI_method LVL), particularly Hartree-Fock and
  # hybrid density functional calculations, the highest accuracy can be obtained by
  # uncommenting the line beginning with "for_aux"  below, thus adding an extra g radial
  # function to the construction of the product basis set for the expansion.
  # See Ref. New J. Phys. 17, 093020 (2015) for more information, particularly Figs. 1 and 6.
  #
  ################################################################################
  #
  # for_aux hydro 5 g 6.0
  ################################################################################
  #
  #  FHI-aims code project
  # Volker Blum, Fritz Haber Institute Berlin, 2009
  #
  #  Suggested "tight" defaults for C atom (to be pasted into control.in file)
  #
  ################################################################################
    species        C
  #     global species definitions
      nucleus             6
      mass                12.0107
  #
      l_hartree           6
  #
      cut_pot             4.0  2.0  1.0
      basis_dep_cutoff    1e-4
  #
      radial_base         34 7.0
      radial_multiplier   2
      angular_grids specified
        division   0.2187   50
        division   0.4416  110
        division   0.6335  194
        division   0.7727  302
        division   0.8772  434
  #      division   0.9334  590
  #      division   0.9924  770
  #      division   1.0230  974
  #      division   1.5020 1202
  #     outer_grid  974
        outer_grid  434
  ################################################################################
  #
  #  Definition of "minimal" basis
  #
  ################################################################################
  #     valence basis states
      valence      2  s   2.
      valence      2  p   2.
  #     ion occupancy
      ion_occ      2  s   1.
      ion_occ      2  p   1.
  ################################################################################
  #
  #  Suggested additional basis functions. For production calculations,
  #  uncomment them one after another (the most important basis functions are
  #  listed first).
  #
  #  Constructed for dimers: 1.0 A, 1.25 A, 1.5 A, 2.0 A, 3.0 A
  #
  ################################################################################
  #  "First tier" - improvements: -1214.57 meV to -155.61 meV
       hydro 2 p 1.7
       hydro 3 d 6
       hydro 2 s 4.9
  #  "Second tier" - improvements: -67.75 meV to -5.23 meV
       hydro 4 f 9.8
       hydro 3 p 5.2
       hydro 3 s 4.3
       hydro 5 g 14.4
       hydro 3 d 6.2
  #  "Third tier" - improvements: -2.43 meV to -0.60 meV
  #     hydro 2 p 5.6
  #     hydro 2 s 1.4
  #     hydro 3 d 4.9
  #     hydro 4 f 11.2
  #  "Fourth tier" - improvements: -0.39 meV to -0.18 meV
  #     hydro 2 p 2.1
  #     hydro 5 g 16.4
  #     hydro 4 d 13.2
  #     hydro 3 s 13.6
  #     hydro 4 f 17.6
  #  Further basis functions - improvements: -0.08 meV and below
  #     hydro 3 s 2
  #     hydro 3 p 6
  #     hydro 4 d 20
  ################################################################################
  #
  # For methods that use the localized form of the "resolution of identity" for
  # the two-electron Coulomb operator (RI_method LVL), particularly Hartree-Fock and
  # hybrid density functional calculations, the highest accuracy can be obtained by
  # uncommenting the line beginning with "for_aux"  below, thus adding an extra g radial
  # function to the construction of the product basis set for the expansion.
  # See Ref. New J. Phys. 17, 093020 (2015) for more information, particularly Figs. 1 and 6.
  #
  ################################################################################
  #
  # for_aux hydro 5 g 6.0
  
  -----------------------------------------------------------------------
  Completed first pass over input file control.in .
  -----------------------------------------------------------------------
  
  
  -----------------------------------------------------------------------
  Parsing geometry.in (first pass over file, find array dimensions only).
  The contents of geometry.in will be repeated verbatim below
  unless switched off by setting 'verbatim_writeout .false.' .
  in the first line of geometry.in .
  -----------------------------------------------------------------------
  
  #=======================================================
  # FHI-aims file: geometry.in
  # Created using the Atomic Simulation Environment (ASE)
  # Sun Jun 20 15:47:01 2021
  #=======================================================
  atom 9.2538750000000007 10.1025899999999993 29.3690859999999994 C
  atom 9.1692479999999996 10.5585190000000004 28.0678049999999999 C
  atom 8.2319469999999999 10.4384899999999998 30.3192300000000010 C
  atom 10.2962120000000006 9.1686300000000003 29.7749239999999986 C
  atom 8.0210390000000000 11.4309980000000007 27.6730060000000009 C
  atom 10.0925440000000002 10.0800710000000002 27.0704430000000009 C
  atom 8.0947370000000003 9.8576689999999996 31.5483939999999983 C
  atom 7.5338320000000003 11.1977100000000007 29.9978960000000008 H
  atom 10.1590009999999999 8.5878080000000008 31.0040890000000005 C
  atom 11.3876919999999995 8.8587039999999995 28.8315260000000002 C
  atom 6.8809899999999997 10.8591949999999997 27.1190110000000004 C
  atom 8.0029149999999998 12.7991580000000003 27.9191579999999995 C
  atom 9.9294189999999993 10.4014690000000005 25.7252550000000006 C
  atom 11.2020040000000005 9.2526790000000005 27.4657330000000002 C
  atom 7.0032569999999996 10.1675939999999994 32.4917919999999967 C
  atom 9.1370740000000001 8.9237090000000006 31.9542320000000011 C
  atom 10.8571170000000006 7.8285879999999999 31.3254230000000007 H
  atom 12.5857240000000008 8.2085770000000000 29.1858520000000006 C
  atom 6.8664009999999998 9.7885930000000005 26.9205690000000004 H
  atom 5.7593709999999998 11.6185709999999993 26.8526230000000012 C
  atom 6.8742460000000003 13.5611099999999993 27.6428350000000016 C
  atom 8.8798469999999998 13.2796500000000002 28.3534490000000012 H
  atom 9.0857939999999999 11.0227860000000000 25.4376479999999994 H
  atom 10.8123690000000003 9.9392589999999998 24.7461669999999998 C
  atom 12.1188970000000005 8.8364840000000004 26.4579459999999997 C
  atom 5.8052250000000001 10.8177219999999998 32.1374660000000034 C
  atom 7.1889440000000002 9.7736199999999993 33.8575850000000003 C
  atom 9.2217009999999995 8.4677799999999994 33.2555130000000005 C
  atom 13.4901560000000007 7.8538660000000000 28.1683759999999985 C
  atom 13.0281819999999993 7.8708609999999997 30.5959210000000006 C
  atom 4.8859630000000003 11.1185360000000006 26.4366050000000001 H
  atom 5.7190250000000002 12.9877939999999992 27.1166809999999998 C
  atom 6.9058039999999998 14.6258400000000002 27.8644570000000016 H
  atom 10.6451150000000005 10.1911280000000009 23.6998679999999986 H
  atom 11.8927589999999999 9.1770060000000004 25.1003700000000016 C
  atom 13.2598109999999991 8.1006940000000007 26.8451410000000017 C
  atom 5.3627669999999998 11.1554380000000002 30.7273980000000009 C
  atom 4.9007920000000000 11.1724329999999998 33.1549430000000029 C
  atom 6.2720520000000004 10.1898140000000001 34.8653729999999982 C
  atom 8.2984050000000007 8.9462279999999996 34.2528750000000031 C
  atom 10.3699100000000008 7.5953010000000001 33.6503119999999996 C
  atom 14.4113629999999997 7.3542969999999999 28.4686149999999998 H
  atom 12.6195670000000000 6.9095490000000002 30.9463219999999986 H
  atom 12.7340260000000001 8.6257400000000004 31.3333949999999994 H
  atom 14.1214569999999995 7.7788360000000001 30.6243750000000006 H
  atom 4.4214079999999996 13.7655019999999997 26.8680759999999985 C
  atom 12.5952509999999993 8.8265229999999999 24.3462159999999983 H
  atom 13.9597429999999996 7.7648270000000004 26.0790900000000008 H
  atom 4.2694910000000004 11.2474629999999998 30.6989440000000009 H
  atom 5.6569229999999999 10.4005589999999994 29.9899230000000010 H
  atom 5.7713820000000000 12.1167490000000004 30.3769959999999983 H
  atom 3.9795859999999998 11.6720020000000009 32.8547039999999981 H
  atom 5.1311369999999998 10.9256049999999991 34.4781770000000023 C
  atom 6.4981900000000001 9.8492929999999994 36.2229480000000024 C
  atom 8.4615299999999998 8.6248290000000001 35.5980640000000008 C
  atom 10.3880339999999993 6.2271409999999996 33.4041610000000020 C
  atom 11.5099590000000003 8.1671029999999991 34.2043070000000000 C
  atom 3.9557090000000001 13.5436029999999992 25.4196190000000009 C
  atom 3.3466049999999998 13.2237550000000006 27.8227569999999993 C
  atom 4.5851329999999999 15.2620090000000008 27.0915379999999999 C
  atom 4.4312060000000004 11.2614719999999995 35.2442279999999997 H
  atom 5.7956979999999998 10.1997750000000007 36.9771020000000021 H
  atom 7.5785790000000004 9.0870400000000000 36.5771519999999981 C
  atom 9.3051539999999999 8.0035120000000006 35.8856699999999975 H
  atom 9.5111019999999993 5.7466489999999997 32.9698690000000028 H
  atom 11.5167029999999997 5.4651889999999996 33.6804830000000024 C
  atom 12.6315779999999993 7.4077279999999996 34.4706959999999967 C
  atom 11.5245479999999993 9.2377050000000001 34.4027490000000000 H
  atom 3.7455799999999999 12.4895010000000006 25.2016759999999991 H
  atom 3.0356320000000001 14.1119570000000003 25.2238749999999996 H
  atom 4.7175019999999996 13.8809529999999999 24.7056930000000001 H
  atom 3.2265500000000000 12.1380730000000003 27.7283200000000001 H
  atom 2.3714270000000002 13.6793840000000007 27.6016259999999996 H
  atom 3.6006429999999998 13.4424689999999991 28.8699140000000014 H
  atom 3.6415000000000002 15.7793030000000005 26.8731049999999989 H
  atom 5.3451089999999999 15.6970869999999998 26.4294919999999998 H
  atom 4.8580730000000001 15.5082059999999995 28.1264299999999992 H
  atom 7.7458340000000003 8.8351710000000008 37.6234499999999983 H
  atom 11.4851440000000000 4.4004589999999997 33.4588609999999989 H
  atom 12.6719229999999996 6.0385049999999998 34.2066370000000006 C
  atom 13.5049980000000005 7.9078080000000002 34.8865899999999982 H
  atom 13.9695409999999995 5.2607970000000002 34.4552419999999984 C
  atom 13.8058160000000001 3.7642899999999999 34.2317800000000005 C
  atom 15.0443440000000006 5.8025440000000001 33.5005609999999976 C
  atom 14.4352400000000003 5.4826949999999997 35.9036990000000031 C
  atom 13.5328750000000007 3.5180929999999999 33.1968880000000013 H
  atom 13.0458400000000001 3.3292120000000001 34.8938270000000017 H
  atom 14.7494490000000003 3.2469950000000001 34.4502140000000026 H
  atom 14.7903059999999993 5.5838299999999998 32.4534039999999990 H
  atom 16.0195219999999985 5.3469150000000001 33.7216930000000019 H
  atom 15.1643989999999995 6.8882260000000004 33.5949990000000014 H
  atom 13.6734469999999995 5.1453449999999998 36.6176249999999968 H
  atom 15.3553169999999994 4.9143420000000004 36.0994430000000008 H
  atom 14.6453690000000005 6.5367980000000001 36.1216420000000014 H
  
  -----------------------------------------------------------------------
  Completed first pass over input file geometry.in .
  -----------------------------------------------------------------------
  

  Basic array size parameters:
  | Number of species                 :        2
  | Number of atoms                   :       94
  | Max. basis fn. angular momentum   :        4
  | Max. atomic/ionic basis occupied n:        2
  | Max. number of basis fn. types    :        2
  | Max. radial fns per species/type  :        8
  | Max. logarithmic grid size        :     1277
  | Max. radial integration grid size :       69
  | Max. angular integration grid size:      434
  | Max. angular grid division number :        8
  | Radial grid for Hartree potential :     1277
  | Number of spin channels           :        1

------------------------------------------------------------
          Reading file control.in.
------------------------------------------------------------
  XC: Using PBE gradient-corrected functionals.
  Scalar relativistic treatment of kinetic energy: ZORA.
  Threshold value for ZORA:   0.100000E-11
  Occupation type: Gaussian broadening, width =   0.100000E-03 eV.
  Since 'load_balancing .true.' is present in control.in, automatically turning on 'use_local_index .true.'.
  Using load balancing for integrations.
  Kohn-Sham electronic structure solved by the ELSI library.
  Using pulay charge density mixing.
  Pulay mixing - number of memorized iterations:    5
  Charge density mixing - mixing parameter:     0.4000
  Convergence accuracy of total energy:  0.1000E-05
  Convergence accuracy of sum of eigenvalues:  0.1000E-03
  Convergence accuracy of self-consistent charge density:  0.1000E-05
  Maximum number of s.-c. iterations  :   100
  * Ignoring prodbas_threshold
  Threshold for basis singularities:  0.1000E-04
  override_illconditioning: Explicitly overriding any built-in checks for an ill-conditioned overlap matrix.
  *** WARNING: If you use this flag, you should really know what you are doing.
  *** DO NOT keep this flag set by default in all your control.in files.
  Using 1D integrations for auxiliary 2-center integrals.
  Spin treatment: No spin polarisation.
  Charge =   0.000000E+00: Neutral system requested explicitly.
 
  Reading configuration options for species H                   .
  | Found nuclear charge :   1.0000
  | Found atomic mass :    1.00794000000000      amu
  | Found l_max for Hartree potential  :   6
  | Found cutoff potl. onset [A], width [A], scale factor :    4.00000    2.00000    1.00000
  | Threshold for basis-dependent cutoff potential is   0.100000E-03
  | Found data for basic radial integration grid :    24 points, outermost radius =    7.000 A
  | Found multiplier for basic radial grid :   2
  | Found angular grid specification: user-specified.
  | Specified grid contains     6 separate shells.
  | Check grid settings after all constraints further below.
  | Found free-atom valence shell :  1 s   1.000
  | No ionic wave fns used. Skipping ion_occ.
  | Found hydrogenic basis function :  2 s   2.100
  | Found hydrogenic basis function :  2 p   3.500
  | Found hydrogenic basis function :  1 s   0.850
  | Found hydrogenic basis function :  2 p   3.700
  | Found hydrogenic basis function :  2 s   1.200
  | Found hydrogenic basis function :  3 d   7.000
  Species H                   : Missing cutoff potential type.
  Defaulting to exp(1/x)/(1-x)^2 type cutoff potential.
  Species H : No 'logarithmic' tag. Using default grid for free atom:
  | Default logarithmic grid data [bohr] : 0.1000E-03 0.1000E+03 0.1012E+01
  Species H : On-site basis accuracy parameter (for Gram-Schmidt orthonormalisation) not specified.
  Using default value basis_acc =  0.1000000E-03.
  Species H                   : Using default innermost maximum threshold i_radial=  2 for radial functions.
  Species H                   : Default cutoff onset for free atom density etc. : 0.40000000E+01 AA.
  Species H                   : Basic radial grid will be enhanced according to radial_multiplier =   2, to contain    49 grid points.
 
  Reading configuration options for species C                   .
  | Found nuclear charge :   6.0000
  | Found atomic mass :    12.0107000000000      amu
  | Found l_max for Hartree potential  :   6
  | Found cutoff potl. onset [A], width [A], scale factor :    4.00000    2.00000    1.00000
  | Threshold for basis-dependent cutoff potential is   0.100000E-03
  | Found data for basic radial integration grid :    34 points, outermost radius =    7.000 A
  | Found multiplier for basic radial grid :   2
  | Found angular grid specification: user-specified.
  | Specified grid contains     6 separate shells.
  | Check grid settings after all constraints further below.
  | Found free-atom valence shell :  2 s   2.000
  | Found free-atom valence shell :  2 p   2.000
  | No ionic wave fns used. Skipping ion_occ.
  | No ionic wave fns used. Skipping ion_occ.
  | Found hydrogenic basis function :  2 p   1.700
  | Found hydrogenic basis function :  3 d   6.000
  | Found hydrogenic basis function :  2 s   4.900
  | Found hydrogenic basis function :  4 f   9.800
  | Found hydrogenic basis function :  3 p   5.200
  | Found hydrogenic basis function :  3 s   4.300
  | Found hydrogenic basis function :  5 g  14.400
  | Found hydrogenic basis function :  3 d   6.200
  Species C                   : Missing cutoff potential type.
  Defaulting to exp(1/x)/(1-x)^2 type cutoff potential.
  Species C : No 'logarithmic' tag. Using default grid for free atom:
  | Default logarithmic grid data [bohr] : 0.1000E-03 0.1000E+03 0.1012E+01
  Species C : On-site basis accuracy parameter (for Gram-Schmidt orthonormalisation) not specified.
  Using default value basis_acc =  0.1000000E-03.
  Species C                   : Using default innermost maximum threshold i_radial=  2 for radial functions.
  Species C                   : Default cutoff onset for free atom density etc. : 0.40000000E+01 AA.
  Species C                   : Basic radial grid will be enhanced according to radial_multiplier =   2, to contain    69 grid points.
 
  Finished reading input file 'control.in'. Consistency checks are next.
 
  MPI_IN_PLACE appears to work with this MPI implementation.
  | Keeping use_mpi_in_place .true. (see manual).
  Target number of points in a grid batch is not set. Defaulting to  100
  Method for grid partitioning is not set. Defaulting to parallel hash+maxmin partitioning.
  Batch size limit is not set. Defaulting to    200
  By default, will store active basis functions for each batch.
  If in need of memory, prune_basis_once .false. can be used to disable this option.
  communication_type for Hartree potential was not specified.
  Defaulting to calc_hartree .
  Pulay mixer: Number of initial linear mixing iterations not set.
  Defaulting to    0 iterations.
  Work space size for distributed Hartree potential not set.
  Defaulting to   0.200000E+03 MB.
  Algorithm-dependent basis array size parameters:
  | n_max_pulay                         :        5
  Presetting      1001 iterations before the initial mixing cycle
  is restarted anyway using the sc_init_iter criterion / keyword.
  Presetting a factor      1.000 between actual scf density residual
  and density convergence criterion sc_accuracy_rho below which sc_init_iter
  takes no effect.
  Calculation of forces was not defined in control.in. No forces will be calculated.
  Geometry relaxation not requested: no relaxation will be performed.
  No accuracy limit for integral partition fn. given. Defaulting to  0.1000E-14.
  No threshold value for u(r) in integrations given. Defaulting to  0.1000E-05.
  No accuracy for occupation numbers given. Defaulting to  0.1000E-12.
  No threshold value for occupation numbers given. Defaulting to  0.0000E+00.
  No accuracy for fermi level given. Defaulting to  0.1000E-19.
  Maximum # of iterations to find E_F not set. Defaulting to  200.
  Will not use alltoall communication since running on < 1024 CPUs.
  partition_type (choice of integration weights) for integrals was not specified.
  | Using a version of the partition function of Stratmann and coworkers ('stratmann_sparse').
  | At each grid point, the set of atoms used to build the partition table is smoothly restricted to
  | only those atoms whose free-atom density would be non-zero at that grid point.
  Partitioning for Hartree potential was not defined. Using partition_type for integrals.
  | Adjusted default value of keyword multip_moments_threshold to:       0.10000000E-11
  | This value may affect high angular momentum components of the Hartree potential in periodic systems.
  No q(lm)/r^(l+1) cutoff set for long-range Hartree potential.
  | Using default value of  0.100000E-09 .
  | Verify using the multipole_threshold keyword.
  Defaulting to new monopole extrapolation.
  Density update method: automatic selection selected.
 * Warning: use_local_index and/or load_balancing needs packed_matrix_format = index
 * Changing the default setting to packed_matrix_format = index
------------------------------------------------------------


------------------------------------------------------------
          Reading geometry description geometry.in.
------------------------------------------------------------
  Input structure read successfully.
  The structure contains       94 atoms,  and a total of        344.000 electrons.

  Input geometry:
  | No unit cell requested.
  | Atomic structure:
  |       Atom                x [A]            y [A]            z [A]
  |    1: Species C             9.25387500       10.10259000       29.36908600
  |    2: Species C             9.16924800       10.55851900       28.06780500
  |    3: Species C             8.23194700       10.43849000       30.31923000
  |    4: Species C            10.29621200        9.16863000       29.77492400
  |    5: Species C             8.02103900       11.43099800       27.67300600
  |    6: Species C            10.09254400       10.08007100       27.07044300
  |    7: Species C             8.09473700        9.85766900       31.54839400
  |    8: Species H             7.53383200       11.19771000       29.99789600
  |    9: Species C            10.15900100        8.58780800       31.00408900
  |   10: Species C            11.38769200        8.85870400       28.83152600
  |   11: Species C             6.88099000       10.85919500       27.11901100
  |   12: Species C             8.00291500       12.79915800       27.91915800
  |   13: Species C             9.92941900       10.40146900       25.72525500
  |   14: Species C            11.20200400        9.25267900       27.46573300
  |   15: Species C             7.00325700       10.16759400       32.49179200
  |   16: Species C             9.13707400        8.92370900       31.95423200
  |   17: Species H            10.85711700        7.82858800       31.32542300
  |   18: Species C            12.58572400        8.20857700       29.18585200
  |   19: Species H             6.86640100        9.78859300       26.92056900
  |   20: Species C             5.75937100       11.61857100       26.85262300
  |   21: Species C             6.87424600       13.56111000       27.64283500
  |   22: Species H             8.87984700       13.27965000       28.35344900
  |   23: Species H             9.08579400       11.02278600       25.43764800
  |   24: Species C            10.81236900        9.93925900       24.74616700
  |   25: Species C            12.11889700        8.83648400       26.45794600
  |   26: Species C             5.80522500       10.81772200       32.13746600
  |   27: Species C             7.18894400        9.77362000       33.85758500
  |   28: Species C             9.22170100        8.46778000       33.25551300
  |   29: Species C            13.49015600        7.85386600       28.16837600
  |   30: Species C            13.02818200        7.87086100       30.59592100
  |   31: Species H             4.88596300       11.11853600       26.43660500
  |   32: Species C             5.71902500       12.98779400       27.11668100
  |   33: Species H             6.90580400       14.62584000       27.86445700
  |   34: Species H            10.64511500       10.19112800       23.69986800
  |   35: Species C            11.89275900        9.17700600       25.10037000
  |   36: Species C            13.25981100        8.10069400       26.84514100
  |   37: Species C             5.36276700       11.15543800       30.72739800
  |   38: Species C             4.90079200       11.17243300       33.15494300
  |   39: Species C             6.27205200       10.18981400       34.86537300
  |   40: Species C             8.29840500        8.94622800       34.25287500
  |   41: Species C            10.36991000        7.59530100       33.65031200
  |   42: Species H            14.41136300        7.35429700       28.46861500
  |   43: Species H            12.61956700        6.90954900       30.94632200
  |   44: Species H            12.73402600        8.62574000       31.33339500
  |   45: Species H            14.12145700        7.77883600       30.62437500
  |   46: Species C             4.42140800       13.76550200       26.86807600
  |   47: Species H            12.59525100        8.82652300       24.34621600
  |   48: Species H            13.95974300        7.76482700       26.07909000
  |   49: Species H             4.26949100       11.24746300       30.69894400
  |   50: Species H             5.65692300       10.40055900       29.98992300
  |   51: Species H             5.77138200       12.11674900       30.37699600
  |   52: Species H             3.97958600       11.67200200       32.85470400
  |   53: Species C             5.13113700       10.92560500       34.47817700
  |   54: Species C             6.49819000        9.84929300       36.22294800
  |   55: Species C             8.46153000        8.62482900       35.59806400
  |   56: Species C            10.38803400        6.22714100       33.40416100
  |   57: Species C            11.50995900        8.16710300       34.20430700
  |   58: Species C             3.95570900       13.54360300       25.41961900
  |   59: Species C             3.34660500       13.22375500       27.82275700
  |   60: Species C             4.58513300       15.26200900       27.09153800
  |   61: Species H             4.43120600       11.26147200       35.24422800
  |   62: Species H             5.79569800       10.19977500       36.97710200
  |   63: Species C             7.57857900        9.08704000       36.57715200
  |   64: Species H             9.30515400        8.00351200       35.88567000
  |   65: Species H             9.51110200        5.74664900       32.96986900
  |   66: Species C            11.51670300        5.46518900       33.68048300
  |   67: Species C            12.63157800        7.40772800       34.47069600
  |   68: Species H            11.52454800        9.23770500       34.40274900
  |   69: Species H             3.74558000       12.48950100       25.20167600
  |   70: Species H             3.03563200       14.11195700       25.22387500
  |   71: Species H             4.71750200       13.88095300       24.70569300
  |   72: Species H             3.22655000       12.13807300       27.72832000
  |   73: Species H             2.37142700       13.67938400       27.60162600
  |   74: Species H             3.60064300       13.44246900       28.86991400
  |   75: Species H             3.64150000       15.77930300       26.87310500
  |   76: Species H             5.34510900       15.69708700       26.42949200
  |   77: Species H             4.85807300       15.50820600       28.12643000
  |   78: Species H             7.74583400        8.83517100       37.62345000
  |   79: Species H            11.48514400        4.40045900       33.45886100
  |   80: Species C            12.67192300        6.03850500       34.20663700
  |   81: Species H            13.50499800        7.90780800       34.88659000
  |   82: Species C            13.96954100        5.26079700       34.45524200
  |   83: Species C            13.80581600        3.76429000       34.23178000
  |   84: Species C            15.04434400        5.80254400       33.50056100
  |   85: Species C            14.43524000        5.48269500       35.90369900
  |   86: Species H            13.53287500        3.51809300       33.19688800
  |   87: Species H            13.04584000        3.32921200       34.89382700
  |   88: Species H            14.74944900        3.24699500       34.45021400
  |   89: Species H            14.79030600        5.58383000       32.45340400
  |   90: Species H            16.01952200        5.34691500       33.72169300
  |   91: Species H            15.16439900        6.88822600       33.59499900
  |   92: Species H            13.67344700        5.14534500       36.61762500
  |   93: Species H            15.35531700        4.91434200       36.09944300
  |   94: Species H            14.64536900        6.53679800       36.12164200
  |

  | The smallest distance between any two atoms is         1.08029399 AA.
  |
  | The first atom of this pair is atom number                      3 .
  | The second atom of this pair is atom number                     8 .

  Number of empty states per atom not set in control.in - providing a guess from actual geometry.
  | Total number of empty states used during s.c.f. cycle:      216
  If you use a very high smearing, use empty_states (per atom!) in control.in to increase this value.

  Structure-dependent array size parameters: 
  | Maximum number of distinct radial functions  :       18
  | Maximum number of basis functions            :     2610
  | Number of Kohn-Sham states (occupied + empty):      388
------------------------------------------------------------

------------------------------------------------------------
          Preparing all fixed parts of the calculation.
------------------------------------------------------------
  Determining machine precision:
    2.225073858507201E-308
  Setting up grids for atomic and cluster calculations.

  Creating wave function, potential, and density for free atoms.

  Species: H

  List of occupied orbitals and eigenvalues:
    n    l              occ      energy [Ha]    energy [eV]
    1    0           1.0000        -0.238386        -6.4868


  Species: C

  List of occupied orbitals and eigenvalues:
    n    l              occ      energy [Ha]    energy [eV]
    1    0           2.0000       -10.049212      -273.4530
    2    0           2.0000        -0.504761       -13.7352
    2    1           2.0000        -0.193631        -5.2690

  Creating fixed part of basis set: Ionic, confined, hydrogenic.
 
  H                    hydrogenic:
 
  List of hydrogenic basis orbitals: 
    n    l      effective z      eigenvalue [eV]  inner max. [A]     outer max. [A]     outer radius [A]   
    2    0         2.100000       -14.9965           0.193243           1.317208           5.373006
    2    1         3.500000       -41.6672           0.602369           0.602369           4.056063
    1    0         0.850000        -9.8292           0.624871           0.624871           5.373006
    2    1         3.700000       -46.5653           0.573622           0.573622           3.910002
    2    0         1.200000        -4.5995           0.334980           2.228188           5.505995
    3    2         7.000000       -74.0753           0.680699           0.680699           3.769201
 
 
  C                    hydrogenic:
 
  List of hydrogenic basis orbitals: 
    n    l      effective z      eigenvalue [eV]  inner max. [A]     outer max. [A]     outer radius [A]   
    2    1         1.700000        -9.8152           1.245706           1.245706           5.401630
    3    2         6.000000       -54.4226           0.792453           0.792453           4.178599
    2    0         4.900000       -81.6681           0.082559           0.562749           3.353238
    4    3         9.800000       -81.6681           0.863254           0.863254           4.028125
    3    1         5.200000       -40.8774           0.305389           1.215618           4.898362
    3    0         4.300000       -27.9508           0.091041           1.610311           5.401630
    5    4        14.400000      -112.8510           0.917666           0.917666           3.883070
    3    2         6.200000       -58.1113           0.763917           0.763917           4.077671
 

  Adding cutoff potential to free-atom effective potential.
  Creating atomic-like basis functions for current effective potential.

  Species H                   :

  List of atomic basis orbitals and eigenvalues:
    n    l      energy [Ha]    energy [eV]    outer radius [A]
    1    0        -0.238386        -6.4868       5.373006


  Species C                   :

  List of atomic basis orbitals and eigenvalues:
    n    l      energy [Ha]    energy [eV]    outer radius [A]
    1    0       -10.049212      -273.4530       1.934409
    2    0        -0.504761       -13.7352       5.271162
    2    1        -0.193631        -5.2690       5.401630

  Assembling full basis from fixed parts.
  | Species H :   atomic orbital   1 s accepted.
  | Species H :    hydro orbital   2 s accepted.
  | Species H :    hydro orbital   1 s accepted.
  | Species H :    hydro orbital   2 s accepted.
  | Species H :    hydro orbital   2 p accepted.
  | Species H :    hydro orbital   2 p accepted.
  | Species H :    hydro orbital   3 d accepted.
  | Species C :   atomic orbital   1 s accepted.
  | Species C :    hydro orbital   2 s accepted.
  | Species C :   atomic orbital   2 s accepted.
  | Species C :    hydro orbital   3 s accepted.
  | Species C :    hydro orbital   3 p accepted.
  | Species C :   atomic orbital   2 p accepted.
  | Species C :    hydro orbital   2 p accepted.
  | Species C :    hydro orbital   3 d accepted.
  | Species C :    hydro orbital   3 d accepted.
  | Species C :    hydro orbital   4 f accepted.
  | Species C :    hydro orbital   5 g accepted.
 
  Basis size parameters after reduction:
  | Total number of radial functions:       18
  | Total number of basis functions :     2610
 
  Per-task memory consumption for arrays in subroutine allocate_ext:
  |           4.474176MB.
  Testing on-site integration grid accuracy.
  |  Species  Function  <phi|h_atom|phi> (log., in eV)  <phi|h_atom|phi> (rad., in eV)
           1        1                 -6.4870767962                 -6.4871688290
           1        2                 13.5032046589                 13.5028982997
           1        3                 32.8195184817                 32.8119941656
           1        4                 33.8513856511                 33.7670005767 ***
           1        5                 28.8544614965                 28.8544615203
           1        6                 59.6326952547                 59.6327656460
           1        7                 60.2719308513                 60.2719305949
           2        8               -273.4529726040               -273.4529710464
           2        9                -10.7721037319                -10.7721022101
           2       10                 17.6044132601                 17.6044162063
           2       11                 53.7706460658                 53.7706913770
           2       12                 15.0973290362                 15.0973256030
           2       13                  3.8545134692                  3.8545724687
           2       14                 12.1156992592                 12.1182024431
           2       15                 29.4352039302                 29.4352041816
           2       16                 54.8741144708                 54.8740268729
           2       17                 59.3556032049                 59.3556031382
           2       18                 93.4551837154                 93.4551838009
 * Note: Onsite integrals marked "***" above are less accurate than
 * onsite_accuracy_threshold =    0.03000 eV. Usually, this is harmless.
 * When in doubt, tighten the "radial" and/or "radial_multiplier" flags to check.

  Preparing densities etc. for the partition functions (integrals / Hartree potential).

  Preparations completed.
  max(cpu_time)          :      0.204 s.
  Wall clock time (cpu1) :      0.211 s.
------------------------------------------------------------

------------------------------------------------------------
          Begin self-consistency loop: Initialization.

          Date     :  20210620, Time     :  173205.773
------------------------------------------------------------

  Initializing index lists of integration centers etc. from given atomic structure:
  | Number of centers in hartree potential         :        94
  | Number of centers in hartree multipole         :        94
  | Number of centers in electron density summation:        94
  | Number of centers in basis integrals           :        94
  | Number of centers in integrals                 :        94
  | Number of centers in hamiltonian               :        94
  * Using 56 tasks for Scalapack Eigenvalue solver.
  Detailed listing of tasks and assigned k-points:
  (for non-periodic systems, the "k-point" denotes an internal label only)
   Task     0 k-point     1 on d021
   Task     1 k-point     1 on d021
   Task     2 k-point     1 on d021
   Task     3 k-point     1 on d021
   Task     4 k-point     1 on d021
   Task     5 k-point     1 on d021
   Task     6 k-point     1 on d021
   Task     7 k-point     1 on d021
   Task     8 k-point     1 on d021
   Task     9 k-point     1 on d021
   Task    10 k-point     1 on d021
   Task    11 k-point     1 on d021
   Task    12 k-point     1 on d021
   Task    13 k-point     1 on d021
   Task    14 k-point     1 on d021
   Task    15 k-point     1 on d021
   Task    16 k-point     1 on d021
   Task    17 k-point     1 on d021
   Task    18 k-point     1 on d021
   Task    19 k-point     1 on d021
   Task    20 k-point     1 on d021
   Task    21 k-point     1 on d021
   Task    22 k-point     1 on d021
   Task    23 k-point     1 on d021
   Task    24 k-point     1 on d021
   Task    25 k-point     1 on d021
   Task    26 k-point     1 on d021
   Task    27 k-point     1 on d021
   Task    28 k-point     1 on d021
   Task    29 k-point     1 on d021
   Task    30 k-point     1 on d021
   Task    31 k-point     1 on d021
   Task    32 k-point     1 on d021
   Task    33 k-point     1 on d021
   Task    34 k-point     1 on d021
   Task    35 k-point     1 on d021
   Task    36 k-point     1 on d021
   Task    37 k-point     1 on d021
   Task    38 k-point     1 on d021
   Task    39 k-point     1 on d021
   Task    40 k-point     1 on d021
   Task    41 k-point     1 on d021
   Task    42 k-point     1 on d021
   Task    43 k-point     1 on d021
   Task    44 k-point     1 on d021
   Task    45 k-point     1 on d021
   Task    46 k-point     1 on d021
   Task    47 k-point     1 on d021
   Task    48 k-point     1 on d021
   Task    49 k-point     1 on d021
   Task    50 k-point     1 on d021
   Task    51 k-point     1 on d021
   Task    52 k-point     1 on d021
   Task    53 k-point     1 on d021
   Task    54 k-point     1 on d021
   Task    55 k-point     1 on d021
  Tasks:    56 split into      8 X      7 BLACS grid
  Calculating block size based on n_basis =         2610 max_nprow =            8 max_npcol =            7
  ScaLAPACK block size set to:           16
  Allocating        1.032 MB for ovlp
  Allocating        1.032 MB for ham
  Allocating        1.032 MB for eigenvec
  Required Scalapack workspace - INTEGER:            1 REAL:             1
  Partitioning the integration grid into batches with parallel hashing+maxmin method.
  | Number of batches:    14262
  | Maximal batch size:     200
  | Minimal batch size:       9
  | Average batch size:     107.958
  | Standard deviation of batch sizes:      32.219

  Integration load balanced across     56 MPI tasks.
  Work distribution over tasks is as follows:
  Task      0 has      27527 integration points.
  Task      1 has      27620 integration points.
  Task      2 has      27402 integration points.
  Task      3 has      27556 integration points.
  Task      4 has      27486 integration points.
  Task      5 has      27516 integration points.
  Task      6 has      27383 integration points.
  Task      7 has      27557 integration points.
  Task      8 has      27625 integration points.
  Task      9 has      27386 integration points.
  Task     10 has      27628 integration points.
  Task     11 has      27394 integration points.
  Task     12 has      27566 integration points.
  Task     13 has      27324 integration points.
  Task     14 has      27545 integration points.
  Task     15 has      27547 integration points.
  Task     16 has      27475 integration points.
  Task     17 has      27526 integration points.
  Task     18 has      27487 integration points.
  Task     19 has      27543 integration points.
  Task     20 has      27346 integration points.
  Task     21 has      27577 integration points.
  Task     22 has      27542 integration points.
  Task     23 has      27382 integration points.
  Task     24 has      27621 integration points.
  Task     25 has      27382 integration points.
  Task     26 has      27503 integration points.
  Task     27 has      27404 integration points.
  Task     28 has      27561 integration points.
  Task     29 has      27545 integration points.
  Task     30 has      27449 integration points.
  Task     31 has      27610 integration points.
  Task     32 has      27477 integration points.
  Task     33 has      27534 integration points.
  Task     34 has      27384 integration points.
  Task     35 has      27633 integration points.
  Task     36 has      27461 integration points.
  Task     37 has      27456 integration points.
  Task     38 has      27539 integration points.
  Task     39 has      27400 integration points.
  Task     40 has      27531 integration points.
  Task     41 has      27368 integration points.
  Task     42 has      27621 integration points.
  Task     43 has      27545 integration points.
  Task     44 has      27529 integration points.
  Task     45 has      27554 integration points.
  Task     46 has      27502 integration points.
  Task     47 has      27492 integration points.
  Task     48 has      27336 integration points.
  Task     49 has      27577 integration points.
  Task     50 has      27488 integration points.
  Task     51 has      27383 integration points.
  Task     52 has      27600 integration points.
  Task     53 has      27372 integration points.
  Task     54 has      27507 integration points.
  Task     55 has      27396 integration points.
  Initializing partition tables, free-atom densities, potentials, etc. across the integration grid (initialize_grid_storage).
  | initialize_grid_storage: Actual outermost partition radius vs. multipole_radius_free
  | (-- VB: in principle, multipole_radius_free should be larger, hence this output)
  | Species        1: Confinement radius =              6.000000000000000 AA, multipole_radius_free =              6.071692442739658 AA.
  | Species        1: outer_partition_radius set to              6.071692442739658 AA .
  | Species        2: Confinement radius =              6.000000000000000 AA, multipole_radius_free =              6.029870734432609 AA.
  | Species        2: outer_partition_radius set to              6.029870734432609 AA .
  | The sparse table of interatomic distances needs    101.3720 kbyte instead of    70.6880 kbyte of memory.
  | Using the partition_type stratmann_smoother will reduce your memory usage.
  | Net number of integration points:  1539700
  | of which are non-zero points    :  1182400
  Renormalizing the initial density to the exact electron count on the 3D integration grid.
  | Initial density: Formal number of electrons (from input files) :     344.0000000000
  | Integrated number of electrons on 3D grid     :     344.0002577359
  | Charge integration error                      :       0.0002577359
  | Normalization factor for density and gradient :       0.9999992508
  Obtaining max. number of non-zero basis functions in each batch (get_n_compute_maxes).
  | Maximal number of non-zero basis functions:     1120
  Selecting the method for density update.
  Loop over occupied states selected for charge density update.
  Hamiltonian matrix size:
  | Size of matrix non-packed:               3407355
  | Size of matrix packed:         2366322
  Allocating        8.101 MB for KS_eigenvector
  use_local_index: Max. local matrix size =      1392297
  Task:     0 matrix size:     313574
  Task:     1 matrix size:     688219
  Task:     2 matrix size:     571976
  Task:     3 matrix size:     754792
  Task:     4 matrix size:    1260782
  Task:     5 matrix size:     733897
  Task:     6 matrix size:    1031154
  Task:     7 matrix size:     153735
  Task:     8 matrix size:     320952
  Task:     9 matrix size:     220069
  Task:    10 matrix size:     522647
  Task:    11 matrix size:     258036
  Task:    12 matrix size:     686343
  Task:    13 matrix size:     418382
  Task:    14 matrix size:    1281464
  Task:    15 matrix size:    1167700
  Task:    16 matrix size:    1392297
  Task:    17 matrix size:     608549
  Task:    18 matrix size:     614362
  Task:    19 matrix size:     601564
  Task:    20 matrix size:     327222
  Task:    21 matrix size:     618614
  Task:    22 matrix size:    1244955
  Task:    23 matrix size:    1052937
  Task:    24 matrix size:     442356
  Task:    25 matrix size:     201684
  Task:    26 matrix size:     938402
  Task:    27 matrix size:     475376
  Task:    28 matrix size:     619750
  Task:    29 matrix size:     223859
  Task:    30 matrix size:     363408
  Task:    31 matrix size:    1229053
  Task:    32 matrix size:    1362922
  Task:    33 matrix size:     673690
  Task:    34 matrix size:     743675
  Task:    35 matrix size:     434922
  Task:    36 matrix size:     460482
  Task:    37 matrix size:     514736
  Task:    38 matrix size:    1374371
  Task:    39 matrix size:    1296440
  Task:    40 matrix size:    1146478
  Task:    41 matrix size:    1104687
  Task:    42 matrix size:     680438
  Task:    43 matrix size:     287554
  Task:    44 matrix size:     566641
  Task:    45 matrix size:     342953
  Task:    46 matrix size:     232525
  Task:    47 matrix size:     166176
  Task:    48 matrix size:     214185
  Task:    49 matrix size:     959625
  Task:    50 matrix size:    1231540
  Task:    51 matrix size:     728228
  Task:    52 matrix size:     870712
  Task:    53 matrix size:     532023
  Task:    54 matrix size:     485603
  Task:    55 matrix size:     523472
  Integrating Hamiltonian matrix: batch-based integration.
  Time summed over all CPUs for integration: real work      348.652 s, elapsed      649.741 s
  Time get_set_sparse_local_matrix_scalapack:     0.027324 s
  Start compute_balanced_batch_distribution
  Done load balancing, time needed:      0.016 s
  Integrating overlap matrix with loadbalancing
  Time summed over all CPUs for integration: real work      101.839 s, elapsed      119.740 s
  Time get_set_full_local_matrix_scalapack:     0.032634 s

  Updating Kohn-Sham eigenvalues and eigenvectors using ELSI and the ELPA eigensolver.
  Overlap matrix is not singular
  | Lowest and highest eigenvalues :  0.14E+02,  0.83E-04
  Finished singularity check of overlap matrix
  | Time :     0.426 s
  Finished Cholesky decomposition
  | Time :     0.062 s
  Finished transformation to standard eigenproblem
  | Time :     0.085 s
  Starting ELPA eigensolver
  Finished solving standard eigenproblem
  | Time :     0.443 s
  Finished back-transformation of eigenvectors
  | Time :     0.015 s

  Obtaining occupation numbers and chemical potential using ELSI.
  | Chemical potential (Fermi level):    -8.08613086 eV
  Writing Kohn-Sham eigenvalues.

  State    Occupation    Eigenvalue [Ha]    Eigenvalue [eV]
      1       2.00000         -10.180718         -277.03144
      2       2.00000         -10.180718         -277.03144
      3       2.00000         -10.180218         -277.01783
      4       2.00000         -10.180218         -277.01783
      5       2.00000         -10.179337         -276.99385
      6       2.00000         -10.179337         -276.99385
      7       2.00000         -10.179155         -276.98891
      8       2.00000         -10.179155         -276.98891
      9       2.00000         -10.173062         -276.82311
     10       2.00000         -10.173062         -276.82310
     11       2.00000         -10.172965         -276.82046
     12       2.00000         -10.172964         -276.82044
     13       2.00000         -10.172635         -276.81148
     14       2.00000         -10.172635         -276.81148
     15       2.00000         -10.172278         -276.80176
     16       2.00000         -10.172276         -276.80171
     17       2.00000         -10.171426         -276.77857
     18       2.00000         -10.171426         -276.77857
     19       2.00000         -10.171350         -276.77651
     20       2.00000         -10.171350         -276.77651
     21       2.00000         -10.170920         -276.76481
     22       2.00000         -10.170920         -276.76481
     23       2.00000         -10.170425         -276.75135
     24       2.00000         -10.170425         -276.75134
     25       2.00000         -10.170364         -276.74970
     26       2.00000         -10.170364         -276.74969
     27       2.00000         -10.170045         -276.74101
     28       2.00000         -10.170045         -276.74100
     29       2.00000         -10.166654         -276.64874
     30       2.00000         -10.166654         -276.64873
     31       2.00000         -10.166198         -276.63631
     32       2.00000         -10.166198         -276.63631
     33       2.00000         -10.164674         -276.59486
     34       2.00000         -10.164673         -276.59483
     35       2.00000         -10.164234         -276.58288
     36       2.00000         -10.164234         -276.58288
     37       2.00000         -10.161919         -276.51990
     38       2.00000         -10.161919         -276.51988
     39       2.00000         -10.161757         -276.51548
     40       2.00000         -10.161757         -276.51548
     41       2.00000         -10.161221         -276.50090
     42       2.00000         -10.161221         -276.50090
     43       2.00000         -10.159740         -276.46060
     44       2.00000         -10.159740         -276.46060
     45       2.00000         -10.158735         -276.43326
     46       2.00000         -10.158735         -276.43325
     47       2.00000         -10.158140         -276.41705
     48       2.00000         -10.158140         -276.41705
     49       2.00000         -10.155817         -276.35385
     50       2.00000         -10.155817         -276.35385
     51       2.00000          -1.018064          -27.70294
     52       2.00000          -1.011860          -27.53411
     53       2.00000          -1.002405          -27.27683
     54       2.00000          -1.002055          -27.26729
     55       2.00000          -0.987532          -26.87210
     56       2.00000          -0.968789          -26.36208
     57       2.00000          -0.966778          -26.30737
     58       2.00000          -0.959977          -26.12231
     59       2.00000          -0.954534          -25.97418
     60       2.00000          -0.947305          -25.77748
     61       2.00000          -0.919003          -25.00736
     62       2.00000          -0.917829          -24.97538
     63       2.00000          -0.902037          -24.54568
     64       2.00000          -0.896166          -24.38591
     65       2.00000          -0.893921          -24.32483
     66       2.00000          -0.886728          -24.12909
     67       2.00000          -0.886654          -24.12707
     68       2.00000          -0.879895          -23.94316
     69       2.00000          -0.874919          -23.80776
     70       2.00000          -0.867957          -23.61832
     71       2.00000          -0.857220          -23.32613
     72       2.00000          -0.842619          -22.92882
     73       2.00000          -0.830979          -22.61209
     74       2.00000          -0.827577          -22.51952
     75       2.00000          -0.827551          -22.51880
     76       2.00000          -0.824818          -22.44445
     77       2.00000          -0.824797          -22.44386
     78       2.00000          -0.822792          -22.38931
     79       2.00000          -0.785208          -21.36661
     80       2.00000          -0.774439          -21.07355
     81       2.00000          -0.771498          -20.99353
     82       2.00000          -0.768149          -20.90240
     83       2.00000          -0.758182          -20.63118
     84       2.00000          -0.748141          -20.35794
     85       2.00000          -0.747405          -20.33793
     86       2.00000          -0.744794          -20.26687
     87       2.00000          -0.743712          -20.23742
     88       2.00000          -0.739293          -20.11719
     89       2.00000          -0.721289          -19.62727
     90       2.00000          -0.718891          -19.56201
     91       2.00000          -0.696730          -18.95898
     92       2.00000          -0.696656          -18.95697
     93       2.00000          -0.678119          -18.45255
     94       2.00000          -0.674280          -18.34809
     95       2.00000          -0.672556          -18.30118
     96       2.00000          -0.656444          -17.86274
     97       2.00000          -0.654355          -17.80591
     98       2.00000          -0.651710          -17.73393
     99       2.00000          -0.648533          -17.64748
    100       2.00000          -0.636446          -17.31856
    101       2.00000          -0.636331          -17.31544
    102       2.00000          -0.635383          -17.28964
    103       2.00000          -0.635084          -17.28152
    104       2.00000          -0.621339          -16.90749
    105       2.00000          -0.612359          -16.66313
    106       2.00000          -0.610625          -16.61595
    107       2.00000          -0.601350          -16.36358
    108       2.00000          -0.597696          -16.26414
    109       2.00000          -0.592627          -16.12619
    110       2.00000          -0.589585          -16.04342
    111       2.00000          -0.589569          -16.04299
    112       2.00000          -0.584140          -15.89526
    113       2.00000          -0.582397          -15.84783
    114       2.00000          -0.581937          -15.83530
    115       2.00000          -0.581344          -15.81918
    116       2.00000          -0.579488          -15.76868
    117       2.00000          -0.578111          -15.73120
    118       2.00000          -0.574116          -15.62248
    119       2.00000          -0.574070          -15.62125
    120       2.00000          -0.569897          -15.50767
    121       2.00000          -0.564345          -15.35661
    122       2.00000          -0.564343          -15.35655
    123       2.00000          -0.559472          -15.22400
    124       2.00000          -0.553603          -15.06431
    125       2.00000          -0.552357          -15.03040
    126       2.00000          -0.547700          -14.90368
    127       2.00000          -0.542335          -14.75769
    128       2.00000          -0.540143          -14.69803
    129       2.00000          -0.538813          -14.66186
    130       2.00000          -0.537982          -14.63923
    131       2.00000          -0.535271          -14.56546
    132       2.00000          -0.533244          -14.51031
    133       2.00000          -0.528361          -14.37744
    134       2.00000          -0.527960          -14.36653
    135       2.00000          -0.527741          -14.36057
    136       2.00000          -0.525964          -14.31221
    137       2.00000          -0.524783          -14.28008
    138       2.00000          -0.521773          -14.19816
    139       2.00000          -0.518614          -14.11221
    140       2.00000          -0.511721          -13.92463
    141       2.00000          -0.511706          -13.92422
    142       2.00000          -0.506779          -13.79016
    143       2.00000          -0.505711          -13.76110
    144       2.00000          -0.504507          -13.72833
    145       2.00000          -0.504093          -13.71706
    146       2.00000          -0.501433          -13.64468
    147       2.00000          -0.499437          -13.59036
    148       2.00000          -0.497891          -13.54830
    149       2.00000          -0.495872          -13.49336
    150       2.00000          -0.491720          -13.38038
    151       2.00000          -0.489658          -13.32427
    152       2.00000          -0.487858          -13.27529
    153       2.00000          -0.486519          -13.23887
    154       2.00000          -0.484560          -13.18556
    155       2.00000          -0.482905          -13.14053
    156       2.00000          -0.481104          -13.09150
    157       2.00000          -0.471296          -12.82462
    158       2.00000          -0.466555          -12.69560
    159       2.00000          -0.464927          -12.65131
    160       2.00000          -0.460768          -12.53813
    161       2.00000          -0.428498          -11.66001
    162       2.00000          -0.426322          -11.60081
    163       2.00000          -0.405288          -11.02845
    164       2.00000          -0.405014          -11.02099
    165       2.00000          -0.400386          -10.89505
    166       2.00000          -0.397938          -10.82844
    167       2.00000          -0.393916          -10.71900
    168       2.00000          -0.393828          -10.71661
    169       2.00000          -0.391312          -10.64814
    170       2.00000          -0.391044          -10.64084
    171       2.00000          -0.363474           -9.89064
    172       2.00000          -0.325039           -8.84477
    173       0.00000          -0.284783           -7.74935
    174       0.00000          -0.246044           -6.69519
    175       0.00000          -0.218429           -5.94375
    176       0.00000          -0.216690           -5.89644
    177       0.00000          -0.215710           -5.86977
    178       0.00000          -0.213809           -5.81804
    179       0.00000          -0.210745           -5.73467
    180       0.00000          -0.209077           -5.68929
    181       0.00000          -0.207982           -5.65947
    182       0.00000          -0.206085           -5.60787
    183       0.00000          -0.174953           -4.76070
    184       0.00000          -0.173072           -4.70953
    185       0.00000          -0.124438           -3.38614
    186       0.00000          -0.114434           -3.11392
    187       0.00000          -0.113623           -3.09184
    188       0.00000          -0.088345           -2.40398
    189       0.00000          -0.086756           -2.36076
    190       0.00000          -0.081784           -2.22545
    191       0.00000          -0.081277           -2.21165
    192       0.00000          -0.073376           -1.99665
    193       0.00000          -0.072293           -1.96719
    194       0.00000          -0.070146           -1.90878
    195       0.00000          -0.069082           -1.87983
    196       0.00000          -0.066272           -1.80336
    197       0.00000          -0.060726           -1.65243
    198       0.00000          -0.060146           -1.63666
    199       0.00000          -0.057833           -1.57372
    200       0.00000          -0.055349           -1.50612
    201       0.00000          -0.054503           -1.48311
    202       0.00000          -0.050662           -1.37858
    203       0.00000          -0.046063           -1.25345
    204       0.00000          -0.045164           -1.22897
    205       0.00000          -0.041574           -1.13127
    206       0.00000          -0.041159           -1.12000
    207       0.00000          -0.038883           -1.05806
    208       0.00000          -0.037291           -1.01473
    209       0.00000          -0.034692           -0.94403
    210       0.00000          -0.034687           -0.94387
    211       0.00000          -0.034330           -0.93417
    212       0.00000          -0.032695           -0.88968
    213       0.00000          -0.028058           -0.76349
    214       0.00000          -0.027245           -0.74137
    215       0.00000          -0.024258           -0.66009
    216       0.00000          -0.023431           -0.63759
    217       0.00000          -0.021794           -0.59305
    218       0.00000          -0.017998           -0.48976
    219       0.00000          -0.016077           -0.43747
    220       0.00000          -0.015530           -0.42261
    221       0.00000          -0.014516           -0.39501
    222       0.00000          -0.013199           -0.35915
    223       0.00000          -0.010966           -0.29841
    224       0.00000          -0.005057           -0.13760
    225       0.00000          -0.004829           -0.13141
    226       0.00000          -0.002592           -0.07052
    227       0.00000          -0.000568           -0.01547
    228       0.00000           0.002071            0.05637
    229       0.00000           0.002185            0.05947
    230       0.00000           0.002532            0.06891
    231       0.00000           0.004400            0.11972
    232       0.00000           0.006130            0.16681
    233       0.00000           0.006460            0.17578
    234       0.00000           0.009251            0.25174
    235       0.00000           0.010683            0.29070
    236       0.00000           0.014564            0.39631
    237       0.00000           0.014943            0.40661
    238       0.00000           0.016671            0.45364
    239       0.00000           0.018081            0.49202
    240       0.00000           0.018665            0.50791
    241       0.00000           0.020714            0.56364
    242       0.00000           0.021854            0.59468
    243       0.00000           0.022377            0.60892
    244       0.00000           0.023620            0.64272
    245       0.00000           0.026521            0.72167
    246       0.00000           0.027341            0.74398
    247       0.00000           0.028336            0.77106
    248       0.00000           0.029343            0.79845
    249       0.00000           0.032549            0.88569
    250       0.00000           0.033880            0.92192
    251       0.00000           0.034945            0.95089
    252       0.00000           0.036865            1.00314
    253       0.00000           0.039242            1.06784
    254       0.00000           0.041463            1.12827
    255       0.00000           0.042787            1.16429
    256       0.00000           0.043430            1.18180
    257       0.00000           0.046385            1.26221
    258       0.00000           0.052276            1.42249
    259       0.00000           0.052278            1.42255
    260       0.00000           0.053542            1.45696
    261       0.00000           0.054783            1.49072
    262       0.00000           0.056582            1.53968
    263       0.00000           0.058270            1.58560
    264       0.00000           0.060549            1.64763
    265       0.00000           0.061559            1.67509
    266       0.00000           0.063287            1.72212
    267       0.00000           0.063986            1.74116
    268       0.00000           0.065187            1.77384
    269       0.00000           0.066648            1.81359
    270       0.00000           0.067538            1.83780
    271       0.00000           0.070983            1.93155
    272       0.00000           0.071656            1.94987
    273       0.00000           0.074088            2.01604
    274       0.00000           0.074123            2.01700
    275       0.00000           0.078666            2.14061
    276       0.00000           0.081567            2.21955
    277       0.00000           0.082966            2.25763
    278       0.00000           0.085851            2.33612
    279       0.00000           0.087042            2.36853
    280       0.00000           0.089270            2.42915
    281       0.00000           0.090471            2.46183
    282       0.00000           0.092920            2.52848
    283       0.00000           0.094420            2.56929
    284       0.00000           0.095618            2.60191
    285       0.00000           0.097453            2.65183
    286       0.00000           0.098143            2.67062
    287       0.00000           0.102071            2.77749
    288       0.00000           0.102169            2.78015
    289       0.00000           0.105273            2.86464
    290       0.00000           0.109039            2.96709
    291       0.00000           0.109186            2.97112
    292       0.00000           0.112459            3.06017
    293       0.00000           0.112943            3.07334
    294       0.00000           0.113991            3.10185
    295       0.00000           0.114623            3.11905
    296       0.00000           0.116899            3.18099
    297       0.00000           0.118225            3.21707
    298       0.00000           0.119355            3.24781
    299       0.00000           0.120793            3.28696
    300       0.00000           0.122000            3.31979
    301       0.00000           0.124006            3.37438
    302       0.00000           0.125372            3.41156
    303       0.00000           0.127139            3.45962
    304       0.00000           0.130057            3.53903
    305       0.00000           0.130154            3.54166
    306       0.00000           0.133608            3.63566
    307       0.00000           0.134576            3.66199
    308       0.00000           0.135259            3.68058
    309       0.00000           0.136886            3.72485
    310       0.00000           0.138314            3.76372
    311       0.00000           0.138495            3.76864
    312       0.00000           0.139869            3.80603
    313       0.00000           0.144369            3.92849
    314       0.00000           0.144403            3.92940
    315       0.00000           0.144900            3.94294
    316       0.00000           0.146237            3.97930
    317       0.00000           0.149004            4.05460
    318       0.00000           0.150168            4.08628
    319       0.00000           0.152181            4.14104
    320       0.00000           0.153867            4.18694
    321       0.00000           0.155007            4.21795
    322       0.00000           0.156121            4.24826
    323       0.00000           0.157972            4.29863
    324       0.00000           0.159611            4.34323
    325       0.00000           0.159874            4.35040
    326       0.00000           0.162954            4.43420
    327       0.00000           0.164913            4.48751
    328       0.00000           0.166628            4.53417
    329       0.00000           0.166827            4.53958
    330       0.00000           0.167552            4.55932
    331       0.00000           0.173161            4.71194
    332       0.00000           0.174583            4.75066
    333       0.00000           0.175493            4.77540
    334       0.00000           0.175726            4.78175
    335       0.00000           0.180292            4.90600
    336       0.00000           0.182555            4.96756
    337       0.00000           0.184659            5.02482
    338       0.00000           0.185652            5.05186
    339       0.00000           0.185790            5.05559
    340       0.00000           0.187025            5.08922
    341       0.00000           0.188634            5.13299
    342       0.00000           0.192701            5.24367
    343       0.00000           0.195280            5.31383
    344       0.00000           0.197431            5.37238
    345       0.00000           0.197843            5.38359
    346       0.00000           0.198382            5.39824
    347       0.00000           0.201157            5.47377
    348       0.00000           0.201574            5.48510
    349       0.00000           0.202217            5.50262
    350       0.00000           0.202516            5.51073
    351       0.00000           0.204209            5.55680
    352       0.00000           0.209212            5.69295
    353       0.00000           0.210974            5.74089
    354       0.00000           0.211240            5.74814
    355       0.00000           0.211494            5.75503
    356       0.00000           0.213894            5.82036
    357       0.00000           0.214903            5.84781
    358       0.00000           0.217018            5.90537
    359       0.00000           0.217758            5.92550
    360       0.00000           0.219399            5.97016
    361       0.00000           0.220913            6.01135
    362       0.00000           0.221625            6.03072
    363       0.00000           0.224688            6.11406
    364       0.00000           0.226815            6.17195
    365       0.00000           0.227915            6.20189
    366       0.00000           0.229105            6.23427
    367       0.00000           0.232989            6.33994
    368       0.00000           0.233038            6.34127
    369       0.00000           0.234754            6.38799
    370       0.00000           0.238478            6.48932
    371       0.00000           0.240357            6.54044
    372       0.00000           0.241237            6.56439
    373       0.00000           0.244550            6.65453
    374       0.00000           0.246455            6.70639
    375       0.00000           0.246681            6.71253
    376       0.00000           0.251699            6.84908
    377       0.00000           0.252530            6.87168
    378       0.00000           0.257492            7.00672
    379       0.00000           0.258941            7.04614
    380       0.00000           0.260742            7.09515
    381       0.00000           0.261375            7.11238
    382       0.00000           0.265255            7.21796
    383       0.00000           0.268137            7.29638
    384       0.00000           0.270994            7.37412
    385       0.00000           0.271639            7.39166
    386       0.00000           0.272630            7.41863
    387       0.00000           0.273612            7.44537
    388       0.00000           0.274616            7.47269

  Highest occupied state (VBM) at     -8.84476957 eV
  | Occupation number:      2.00000000

  Lowest unoccupied state (CBM) at    -7.74935259 eV
  | Occupation number:      0.00000000

  Overall HOMO-LUMO gap:      1.09541698 eV.
  Calculating total energy contributions from superposition of free atom densities.

  Total energy components:
  | Sum of eigenvalues            :       -1173.43777331 Ha      -31930.86643644 eV
  | XC energy correction          :        -280.10137036 Ha       -7621.94608793 eV
  | XC potential correction       :         359.84862625 Ha        9791.97933067 eV
  | Free-atom electrostatic energy:        -839.86948954 Ha      -22854.01160965 eV
  | Hartree energy correction     :           0.00000000 Ha           0.00000000 eV
  | Entropy correction            :           0.00000000 Ha           0.00000000 eV
  | ---------------------------
  | Total energy                  :       -1933.56000697 Ha      -52614.84480335 eV
  | Total energy, T -> 0          :       -1933.56000697 Ha      -52614.84480335 eV  <-- do not rely on this value for anything but (periodic) metals
  | Electronic free energy        :       -1933.56000697 Ha      -52614.84480335 eV

  Derived energy quantities:
  | Kinetic energy                :        1912.50893045 Ha       52042.01586605 eV
  | Electrostatic energy          :       -3565.96756705 Ha      -97034.91458147 eV
  | Energy correction for multipole
  | error in Hartree potential    :           0.00000000 Ha           0.00000000 eV
  | Sum of eigenvalues per atom                           :        -339.69006847 eV
  | Total energy (T->0) per atom                          :        -559.73239152 eV  <-- do not rely on this value for anything but (periodic) metals
  | Electronic free energy per atom                       :        -559.73239152 eV
  Initialize hartree_potential_storage
  Max. number of atoms included in rho_multipole:           94

[...]
    218       0.00000           0.071107            1.93492
    219       0.00000           0.074428            2.02530
    220       0.00000           0.075898            2.06528
    221       0.00000           0.078486            2.13572
    222       0.00000           0.079232            2.15602
    223       0.00000           0.083964            2.28478
    224       0.00000           0.088605            2.41106
    225       0.00000           0.088738            2.41468
    226       0.00000           0.093293            2.53862
    227       0.00000           0.094161            2.56225
    228       0.00000           0.098127            2.67017
    229       0.00000           0.101671            2.76661
    230       0.00000           0.104876            2.85383
    231       0.00000           0.105009            2.85743
    232       0.00000           0.105869            2.88085
    233       0.00000           0.107352            2.92120
    234       0.00000           0.110890            3.01748
    235       0.00000           0.112489            3.06099
    236       0.00000           0.113971            3.10130
    237       0.00000           0.114279            3.10968
    238       0.00000           0.117958            3.20980
    239       0.00000           0.119916            3.26307
    240       0.00000           0.122700            3.33885
    241       0.00000           0.128268            3.49034
    242       0.00000           0.128962            3.50922
    243       0.00000           0.129749            3.53066
    244       0.00000           0.132966            3.61818
    245       0.00000           0.133049            3.62045
    246       0.00000           0.135594            3.68969
    247       0.00000           0.136539            3.71541
    248       0.00000           0.137939            3.75352
    249       0.00000           0.139935            3.80782
    250       0.00000           0.143837            3.91401
    251       0.00000           0.145840            3.96851
    252       0.00000           0.146821            3.99521
    253       0.00000           0.149211            4.06024
    254       0.00000           0.151372            4.11905
    255       0.00000           0.154796            4.21221
    256       0.00000           0.156644            4.26251
    257       0.00000           0.158107            4.30230
    258       0.00000           0.158845            4.32240
    259       0.00000           0.165113            4.49297
    260       0.00000           0.165487            4.50314
    261       0.00000           0.166601            4.53344
    262       0.00000           0.168664            4.58957
    263       0.00000           0.171688            4.67186
    264       0.00000           0.175616            4.77875
    265       0.00000           0.176883            4.81324
    266       0.00000           0.176981            4.81590
    267       0.00000           0.178886            4.86773
    268       0.00000           0.180182            4.90300
    269       0.00000           0.180368            4.90806
    270       0.00000           0.183236            4.98612
    271       0.00000           0.185500            5.04772
    272       0.00000           0.185519            5.04823
    273       0.00000           0.188105            5.11860
    274       0.00000           0.188427            5.12736
    275       0.00000           0.191930            5.22268
    276       0.00000           0.192181            5.22950
    277       0.00000           0.193145            5.25576
    278       0.00000           0.195180            5.31111
    279       0.00000           0.197309            5.36906
    280       0.00000           0.201178            5.47432
    281       0.00000           0.202138            5.50047
    282       0.00000           0.203674            5.54224
    283       0.00000           0.204113            5.55420
    284       0.00000           0.204230            5.55737
    285       0.00000           0.206653            5.62331
    286       0.00000           0.207474            5.64564
    287       0.00000           0.208375            5.67017
    288       0.00000           0.209804            5.70904
    289       0.00000           0.210377            5.72464
    290       0.00000           0.211979            5.76824
    291       0.00000           0.215232            5.85677
    292       0.00000           0.215885            5.87454
    293       0.00000           0.217763            5.92562
    294       0.00000           0.217808            5.92687
    295       0.00000           0.219911            5.98409
    296       0.00000           0.220169            5.99111
    297       0.00000           0.223045            6.06937
    298       0.00000           0.225010            6.12284
    299       0.00000           0.225466            6.13524
    300       0.00000           0.227210            6.18269
    301       0.00000           0.230052            6.26002
    302       0.00000           0.230806            6.28054
    303       0.00000           0.231382            6.29622
    304       0.00000           0.232028            6.31381
    305       0.00000           0.234445            6.37958
    306       0.00000           0.235840            6.41755
    307       0.00000           0.238770            6.49727
    308       0.00000           0.239930            6.52883
    309       0.00000           0.242016            6.58558
    310       0.00000           0.244235            6.64596
    311       0.00000           0.245085            6.66911
    312       0.00000           0.245541            6.68150
    313       0.00000           0.249167            6.78019
    314       0.00000           0.250882            6.82685
    315       0.00000           0.252019            6.85778
    316       0.00000           0.255420            6.95033
    317       0.00000           0.255528            6.95326
    318       0.00000           0.257467            7.00603
    319       0.00000           0.258765            7.04136
    320       0.00000           0.259620            7.06463
    321       0.00000           0.261075            7.10422
    322       0.00000           0.264354            7.19345
    323       0.00000           0.265335            7.22013
    324       0.00000           0.269760            7.34054
    325       0.00000           0.270423            7.35857
    326       0.00000           0.272996            7.42860
    327       0.00000           0.274959            7.48202
    328       0.00000           0.274979            7.48256
    329       0.00000           0.276450            7.52260
    330       0.00000           0.276713            7.52975
    331       0.00000           0.280280            7.62681
    332       0.00000           0.281270            7.65375
    333       0.00000           0.282986            7.70043
    334       0.00000           0.284914            7.75289
    335       0.00000           0.287209            7.81534
    336       0.00000           0.287765            7.83049
    337       0.00000           0.292091            7.94819
    338       0.00000           0.293308            7.98130
    339       0.00000           0.294061            8.00181
    340       0.00000           0.297310            8.09023
    341       0.00000           0.297425            8.09335
    342       0.00000           0.299222            8.14224
    343       0.00000           0.301117            8.19381
    344       0.00000           0.301629            8.20773
    345       0.00000           0.302032            8.21871
    346       0.00000           0.305443            8.31151
    347       0.00000           0.307283            8.36160
    348       0.00000           0.308734            8.40109
    349       0.00000           0.311056            8.46428
    350       0.00000           0.313828            8.53970
    351       0.00000           0.314876            8.56820
    352       0.00000           0.317387            8.63655
    353       0.00000           0.318851            8.67637
    354       0.00000           0.319372            8.69056
    355       0.00000           0.322445            8.77417
    356       0.00000           0.324241            8.82305
    357       0.00000           0.324875            8.84029
    358       0.00000           0.326021            8.87148
    359       0.00000           0.329904            8.97715
    360       0.00000           0.330053            8.98121
    361       0.00000           0.331070            9.00886
    362       0.00000           0.334280            9.09622
    363       0.00000           0.335234            9.12219
    364       0.00000           0.339535            9.23923
    365       0.00000           0.339903            9.24924
    366       0.00000           0.341317            9.28771
    367       0.00000           0.341711            9.29844
    368       0.00000           0.345028            9.38870
    369       0.00000           0.346382            9.42554
    370       0.00000           0.347933            9.46773
    371       0.00000           0.351536            9.56577
    372       0.00000           0.352755            9.59895
    373       0.00000           0.356620            9.70411
    374       0.00000           0.359760            9.78956
    375       0.00000           0.360429            9.80777
    376       0.00000           0.361570            9.83881
    377       0.00000           0.368847           10.03685
    378       0.00000           0.368972           10.04024
    379       0.00000           0.371788           10.11687
    380       0.00000           0.373395           10.16060
    381       0.00000           0.374434           10.18887
    382       0.00000           0.375779           10.22545
    383       0.00000           0.382351           10.40431
    384       0.00000           0.385919           10.50139
    385       0.00000           0.391124           10.64303
    386       0.00000           0.391411           10.65083
    387       0.00000           0.392270           10.67422
    388       0.00000           0.392358           10.67660

  Highest occupied state (VBM) at     -4.12961321 eV
  | Occupation number:      2.00000000

  Lowest unoccupied state (CBM) at    -3.06422927 eV
  | Occupation number:      0.00000000

  Overall HOMO-LUMO gap:      1.06538394 eV.

  Total energy components:
  | Sum of eigenvalues            :       -1098.25790320 Ha      -29885.11808423 eV
  | XC energy correction          :        -285.90496369 Ha       -7779.86989739 eV
  | XC potential correction       :         367.31456217 Ha        9995.13778359 eV
  | Free-atom electrostatic energy:        -839.86948954 Ha      -22854.01160965 eV
  | Hartree energy correction     :         -74.26970458 Ha       -2020.98148805 eV
  | Entropy correction            :           0.00000000 Ha           0.00000000 eV
  | ---------------------------
  | Total energy                  :       -1930.98749884 Ha      -52544.84329573 eV
  | Total energy, T -> 0          :       -1930.98749884 Ha      -52544.84329573 eV  <-- do not rely on this value for anything but (periodic) metals
  | Electronic free energy        :       -1930.98749884 Ha      -52544.84329573 eV

  Derived energy quantities:
  | Kinetic energy                :        1925.34436493 Ha       52391.28580900 eV
  | Electrostatic energy          :       -3570.42690008 Ha      -97156.25920734 eV
  | Energy correction for multipole
  | error in Hartree potential    :          -0.23608328 Ha          -6.42415285 eV
  | Sum of eigenvalues per atom                           :        -317.92678813 eV
  | Total energy (T->0) per atom                          :        -558.98769464 eV  <-- do not rely on this value for anything but (periodic) metals
  | Electronic free energy per atom                       :        -558.98769464 eV
  End evaluation of scaled ZORA corrections.
  | Time for scaled ZORA corrections           :       12.852 s          12.856 s
------------------------------------------------------------

  Energy and forces in a compact form:
  | Total energy uncorrected      :         -0.525448432957287E+05 eV
  | Total energy corrected        :         -0.525448432957287E+05 eV  <-- do not rely on this value for anything but (periodic) metals
  | Electronic free energy        :         -0.525448432957287E+05 eV

  ------------------------------------ 
  Start decomposition of the XC Energy 
  ------------------------------------ 
  X and C from original XC functional choice 
  Hartree-Fock Energy :          0.000000000 Ha              0.000000000 eV
  X Energy            :       -274.417101251 Ha          -7467.269255507 eV
  C Energy            :        -11.487862438 Ha           -312.600641885 eV
  Total XC Energy     :       -285.904963689 Ha          -7779.869897393 eV
  ------------------------------------ 
  LDA X and C from self-consistent density 
  X Energy LDA        :       -248.580935874 Ha          -6764.231425429 eV
  C Energy LDA        :        -22.019072964 Ha           -599.169460759 eV
  ------------------------------------ 
  End decomposition of the XC Energy 
  ------------------------------------ 

------------------------------------------------------------

------------------------------------------------------------------------------
  Final output of selected total energy values:

  The following output summarizes some interesting total energy values
  at the end of a run (AFTER all relaxation, molecular dynamics, etc.).

  | Total energy of the DFT / Hartree-Fock s.c.f. calculation      :         -52544.843295729 eV
  | Final zero-broadening corrected energy (caution - metals only) :         -52544.843295729 eV
  | For reference only, the value of 1 Hartree used in FHI-aims is :             27.211384500 eV

  Before relying on these values, please be sure to understand exactly which
  total energy value is referred to by a given number. Different objects may
  all carry the same name 'total energy'. Definitions:

  Total energy of the DFT / Hartree-Fock s.c.f. calculation:
  | Note that this energy does not include ANY quantities calculated after the
  | s.c.f. cycle, in particular not ANY RPA, MP2, etc. many-body perturbation terms.
  | Scalar relativistic effects have been included in the 'scaled ZORA' approximation.

  Final zero-broadening corrected energy:
  | For metallic systems only, a broadening of the occupation numbers at the Fermi
  | level can be extrapolated back to zero broadening by an electron-gas inspired
  | formula. For all systems that are not real metals, this value can be
  | meaningless and should be avoided.

------------------------------------------------------------------------------
  Methods described in the following list of references were used in this FHI-aims run.
  If you publish the results, please make sure to cite these reference if they apply.
  FHI-aims is an academic code, and for our developers (often, Ph.D. students
  and postdocs), scientific credit in the community is essential.
  Thank you for helping us!

  For any use of FHI-aims, please cite:

    Volker Blum, Ralf Gehrke, Felix Hanke, Paula Havu, Ville Havu,
    Xinguo Ren, Karsten Reuter, and Matthias Scheffler
    'Ab initio molecular simulations with numeric atom-centered orbitals'
    Computer Physics Communications 180, 2175-2196 (2009)
    http://dx.doi.org/10.1016/j.cpc.2009.06.022


  The scalable eigensolver library ELPA was used in your run.
  ELPA is essential especially for large systems on hundreds or thousands of CPUs.
  For ELPA, please cite:

    Andreas Marek, Volker Blum, Rainer Johanni, Ville Havu, Bruno Lang,
    Thomas Auckenthaler, Alexander Heinecke, Hans-Joachim Bungartz, and Hermann Lederer,
    'The ELPA Library - Scalable Parallel Eigenvalue Solutions
    for Electronic Structure Theory and Computational Science'
    The Journal of Physics: Condensed Matter 26, 213201 (2014).
    http://dx.doi.org/10.1088/0953-8984/26/21/213201


  The ELSI infrastructure was used in your run to solve the Kohn-Sham electronic structure.
  Please check out http://elsi-interchange.org to learn more.
  If scalability is important for your project, please acknowledge ELSI by citing:

    V. W-z. Yu, F. Corsetti, A. Garcia, W. P. Huhn, M. Jacquelin, W. Jia,
    B. Lange, L. Lin, J. Lu, W. Mi, A. Seifitokaldani, A. Vazquez-Mayagoitia,
    C. Yang, H. Yang, and V. Blum
    'ELSI: A unified software interface for Kohn-Sham electronic structure solvers'
    Computer Physics Communications 222, 267-285 (2018).
    http://dx.doi.org/10.1016/j.cpc.2017.09.007


  For the real-space grid partitioning and parallelization used in this calculation, please cite:

    Ville Havu, Volker Blum, Paula Havu, and Matthias Scheffler,
    'Efficient O(N) integration for all-electron electronic structure calculation'
    'using numerically tabulated basis functions'
    Journal of Computational Physics 228, 8367-8379 (2009).
    http://dx.doi.org/10.1016/j.jcp.2009.08.008

  Of course, there are many other important community references, e.g., those cited in the
  above references. Our list is limited to references that describe implementations in the
  FHI-aims code. The reason is purely practical (length of this list) - please credit others as well.

------------------------------------------------------------
          Leaving FHI-aims.
          Date     :  20210620, Time     :  173657.499

          Computational steps:
          | Number of self-consistency cycles          :           19
          | Number of SCF (re)initializations          :            1

          Detailed time accounting                     :  max(cpu_time)    wall_clock(cpu1)
          | Total time                                 :      280.984 s         292.112 s
          | Preparation time                           :        0.204 s           0.211 s
          | Boundary condition initalization           :        0.001 s           0.003 s
          | Grid partitioning                          :        1.922 s           1.927 s
          | Preloading free-atom quantities on grid    :        0.016 s           0.018 s
          | Free-atom superposition energy             :        0.204 s           0.205 s
          | Total time for integrations                :      150.362 s         150.384 s
          | Total time for solution of K.-S. equations :       10.021 s          19.941 s
          | Total time for density update              :       71.356 s          71.281 s
          | Total time for mixing                      :        0.312 s           0.632 s
          | Total time for Hartree multipole update    :        0.339 s           0.344 s
          | Total time for Hartree multipole sum       :       30.856 s          30.887 s
          | Total time for total energy evaluation     :        0.010 s           0.034 s
          | Total time for scaled ZORA corrections     :       12.852 s          12.856 s

          Partial memory accounting:
          | Residual value for overall tracked memory usage across tasks :     0.000000 MB (should be 0.000000 MB)
          | Peak values for overall tracked memory usage (after allocating zora_vector2):
          |   Minimum:       39.455 MB (on task 48)
          |   Maximum:       54.168 MB (on task 17)
          |   Average:       46.654 MB
          | Largest tracked array allocation (hamiltonian_shell):
          |   Minimum:       10.035 MB (on task  1)
          |   Maximum:       11.323 MB (on task 17)
          |   Average:       10.165 MB
          Note:  These values currently only include a subset of arrays which are explicitly tracked.
          The "true" memory usage will be greater.

          Have a nice day.
------------------------------------------------------------
