  MPI-parallelism will be employed.
------------------------------------------------------------
          Invoking FHI-aims ...
          Version 180607
          Git rev. (modified): 6724847 Fix JSON memory corruption in scf_solver
          Compiled on 2018/06/27 at 16:00:31 on host coe.psc.edu.

          When using FHI-aims, please cite the following reference:

          Volker Blum, Ralf Gehrke, Felix Hanke, Paula Havu,
          Ville Havu, Xinguo Ren, Karsten Reuter, and Matthias Scheffler,
          'Ab Initio Molecular Simulations with Numeric Atom-Centered Orbitals',
          Computer Physics Communications 180, 2175-2196 (2009)

          For any questions about FHI-aims, please visit the aimsclub website
          with its forums and wiki. Contributions to both the forums and the
          wiki are warmly encouraged - they are for you, and everyone is welcome there.

------------------------------------------------------------



  Date     :  20210620, Time     :  172022.272
  Time zero on CPU 1             :   0.218896000000000E+00  s.
  Internal wall clock time zero  :           393441622.272  s.

  FHI-aims created a unique identifier for this run for later identification
  aims_uuid : 14264676-A0B4-4600-A5DB-5B5EB7D3834D

  Using       56 parallel tasks.
  Task        0 on host d021 reporting.
  Task        1 on host d021 reporting.
  Task        2 on host d021 reporting.
  Task        3 on host d021 reporting.
  Task        4 on host d021 reporting.
  Task        5 on host d021 reporting.
  Task        6 on host d021 reporting.
  Task        7 on host d021 reporting.
  Task        8 on host d021 reporting.
  Task        9 on host d021 reporting.
  Task       10 on host d021 reporting.
  Task       11 on host d021 reporting.
  Task       12 on host d021 reporting.
  Task       13 on host d021 reporting.
  Task       14 on host d021 reporting.
  Task       15 on host d021 reporting.
  Task       16 on host d021 reporting.
  Task       17 on host d021 reporting.
  Task       18 on host d021 reporting.
  Task       19 on host d021 reporting.
  Task       20 on host d021 reporting.
  Task       21 on host d021 reporting.
  Task       22 on host d021 reporting.
  Task       23 on host d021 reporting.
  Task       24 on host d021 reporting.
  Task       25 on host d021 reporting.
  Task       26 on host d021 reporting.
  Task       27 on host d021 reporting.
  Task       28 on host d021 reporting.
  Task       29 on host d021 reporting.
  Task       30 on host d021 reporting.
  Task       31 on host d021 reporting.
  Task       32 on host d021 reporting.
  Task       33 on host d021 reporting.
  Task       34 on host d021 reporting.
  Task       35 on host d021 reporting.
  Task       36 on host d021 reporting.
  Task       37 on host d021 reporting.
  Task       38 on host d021 reporting.
  Task       39 on host d021 reporting.
  Task       40 on host d021 reporting.
  Task       41 on host d021 reporting.
  Task       42 on host d021 reporting.
  Task       43 on host d021 reporting.
  Task       44 on host d021 reporting.
  Task       45 on host d021 reporting.
  Task       46 on host d021 reporting.
  Task       47 on host d021 reporting.
  Task       48 on host d021 reporting.
  Task       49 on host d021 reporting.
  Task       50 on host d021 reporting.
  Task       51 on host d021 reporting.
  Task       52 on host d021 reporting.
  Task       53 on host d021 reporting.
  Task       54 on host d021 reporting.
  Task       55 on host d021 reporting.

  Performing system and environment tests:
  *** Environment variable OMP_NUM_THREADS is not set
  *** For performance reasons you might want to set it to 1
  | Stacksize not measured: no C compiler
  | Checking for scalapack...
  | Testing pdtran()...
  | All pdtran() tests passed.

  Obtaining array dimensions for all initial allocations:
  
  -----------------------------------------------------------------------
  Parsing control.in (first pass over file, find array dimensions only).
  The contents of control.in will be repeated verbatim below
  unless switched off by setting 'verbatim_writeout .false.' .
  in the first line of control.in .
  -----------------------------------------------------------------------
  
  #===============================================================================
  # FHI-aims file: ./Runs/es/control.in
  # Created using the Atomic Simulation Environment (ASE)
  # Mon Jan 13 16:04:38 2020
  #===============================================================================
  xc                                 pbe
  relativistic                       zora scalar 1e-12
  occupation_type                    gaussian 0.0001
  load_balancing                     .true.
  KS_method                          scalapack_fast
  mixer                              pulay
  n_max_pulay                        5
  charge_mix_param                   0.4
  sc_accuracy_etot                   1e-6
  sc_accuracy_eev                    1e-4
  sc_accuracy_rho                    1e-6
  sc_iter_limit                      100
  prodbas_threshold                  1e-4
  basis_threshold                    1e-5
  override_illconditioning           .true.
  use_logsbt                         .true.
  spin                               none
  charge                             0
  #===============================================================================
  
  ################################################################################
  #
  #  FHI-aims code project
  # Volker Blum, Fritz Haber Institute Berlin, 2009
  #
  #  Suggested "tight" defaults for H atom (to be pasted into control.in file)
  #
  ################################################################################
    species        H
  #     global species definitions
      nucleus             1
      mass                1.00794
  #
      l_hartree           6
  #
      cut_pot             4.0  2.0  1.0
      basis_dep_cutoff    1e-4
  #
      radial_base         24 7.0
      radial_multiplier   2
      angular_grids       specified
        division   0.1930   50
        division   0.3175  110
        division   0.4293  194
        division   0.5066  302
        division   0.5626  434
  #      division   0.5922  590
  #      division   0.6227  974
  #      division   0.6868 1202
  #      outer_grid  770
        outer_grid  434
  ################################################################################
  #
  #  Definition of "minimal" basis
  #
  ################################################################################
  #     valence basis states
      valence      1  s   1.
  #     ion occupancy
      ion_occ      1  s   0.5
  ################################################################################
  #
  #  Suggested additional basis functions. For production calculations,
  #  uncomment them one after another (the most important basis functions are
  #  listed first).
  #
  #  Basis constructed for dimers: 0.5 A, 0.7 A, 1.0 A, 1.5 A, 2.5 A
  #
  ################################################################################
  #  "First tier" - improvements: -1014.90 meV to -62.69 meV
       hydro 2 s 2.1
       hydro 2 p 3.5
  #  "Second tier" - improvements: -12.89 meV to -1.83 meV
       hydro 1 s 0.85
       hydro 2 p 3.7
       hydro 2 s 1.2
       hydro 3 d 7
  #  "Third tier" - improvements: -0.25 meV to -0.12 meV
  #     hydro 4 f 11.2
  #     hydro 3 p 4.8
  #     hydro 4 d 9
  #     hydro 3 s 3.2
  ################################################################################
  #
  # For methods that use the localized form of the "resolution of identity" for
  # the two-electron Coulomb operator (RI_method LVL), particularly Hartree-Fock and
  # hybrid density functional calculations, the highest accuracy can be obtained by
  # uncommenting the line beginning with "for_aux"  below, thus adding an extra g radial
  # function to the construction of the product basis set for the expansion.
  # See Ref. New J. Phys. 17, 093020 (2015) for more information, particularly Figs. 1 and 6.
  #
  ################################################################################
  #
  # for_aux hydro 5 g 6.0
  ################################################################################
  #
  #  FHI-aims code project
  # Volker Blum, Fritz Haber Institute Berlin, 2009
  #
  #  Suggested "tight" defaults for C atom (to be pasted into control.in file)
  #
  ################################################################################
    species        C
  #     global species definitions
      nucleus             6
      mass                12.0107
  #
      l_hartree           6
  #
      cut_pot             4.0  2.0  1.0
      basis_dep_cutoff    1e-4
  #
      radial_base         34 7.0
      radial_multiplier   2
      angular_grids specified
        division   0.2187   50
        division   0.4416  110
        division   0.6335  194
        division   0.7727  302
        division   0.8772  434
  #      division   0.9334  590
  #      division   0.9924  770
  #      division   1.0230  974
  #      division   1.5020 1202
  #     outer_grid  974
        outer_grid  434
  ################################################################################
  #
  #  Definition of "minimal" basis
  #
  ################################################################################
  #     valence basis states
      valence      2  s   2.
      valence      2  p   2.
  #     ion occupancy
      ion_occ      2  s   1.
      ion_occ      2  p   1.
  ################################################################################
  #
  #  Suggested additional basis functions. For production calculations,
  #  uncomment them one after another (the most important basis functions are
  #  listed first).
  #
  #  Constructed for dimers: 1.0 A, 1.25 A, 1.5 A, 2.0 A, 3.0 A
  #
  ################################################################################
  #  "First tier" - improvements: -1214.57 meV to -155.61 meV
       hydro 2 p 1.7
       hydro 3 d 6
       hydro 2 s 4.9
  #  "Second tier" - improvements: -67.75 meV to -5.23 meV
       hydro 4 f 9.8
       hydro 3 p 5.2
       hydro 3 s 4.3
       hydro 5 g 14.4
       hydro 3 d 6.2
  #  "Third tier" - improvements: -2.43 meV to -0.60 meV
  #     hydro 2 p 5.6
  #     hydro 2 s 1.4
  #     hydro 3 d 4.9
  #     hydro 4 f 11.2
  #  "Fourth tier" - improvements: -0.39 meV to -0.18 meV
  #     hydro 2 p 2.1
  #     hydro 5 g 16.4
  #     hydro 4 d 13.2
  #     hydro 3 s 13.6
  #     hydro 4 f 17.6
  #  Further basis functions - improvements: -0.08 meV and below
  #     hydro 3 s 2
  #     hydro 3 p 6
  #     hydro 4 d 20
  ################################################################################
  #
  # For methods that use the localized form of the "resolution of identity" for
  # the two-electron Coulomb operator (RI_method LVL), particularly Hartree-Fock and
  # hybrid density functional calculations, the highest accuracy can be obtained by
  # uncommenting the line beginning with "for_aux"  below, thus adding an extra g radial
  # function to the construction of the product basis set for the expansion.
  # See Ref. New J. Phys. 17, 093020 (2015) for more information, particularly Figs. 1 and 6.
  #
  ################################################################################
  #
  # for_aux hydro 5 g 6.0
  
  -----------------------------------------------------------------------
  Completed first pass over input file control.in .
  -----------------------------------------------------------------------
  
  
  -----------------------------------------------------------------------
  Parsing geometry.in (first pass over file, find array dimensions only).
  The contents of geometry.in will be repeated verbatim below
  unless switched off by setting 'verbatim_writeout .false.' .
  in the first line of geometry.in .
  -----------------------------------------------------------------------
  
  #=======================================================
  # FHI-aims file: geometry.in
  # Created using the Atomic Simulation Environment (ASE)
  # Sun Jun 20 15:47:01 2021
  #=======================================================
  atom 26.2744579999999992 44.6824080000000023 32.6847819999999984 H
  atom 27.1215340000000005 44.6841220000000021 33.3733819999999994 C
  atom 28.0025639999999996 43.5859400000000008 33.3731250000000017 C
  atom 27.3179489999999987 45.7146809999999988 34.2290410000000023 C
  atom 27.8364100000000008 42.4849269999999990 32.5023849999999968 C
  atom 29.0936799999999991 43.5758689999999973 34.2821489999999969 C
  atom 26.6134249999999994 46.5471920000000026 34.2579149999999970 H
  atom 28.4225959999999986 45.7415430000000001 35.0832809999999995 C
  atom 27.0102249999999984 42.5055440000000004 31.7909690000000005 H
  atom 28.6854639999999996 41.4274839999999998 32.5414420000000035 C
  atom 29.9203440000000001 42.4170790000000011 34.3801150000000035 C
  atom 29.3475889999999993 44.7108970000000028 35.0973320000000015 C
  atom 28.5379280000000008 46.5904189999999971 35.7472610000000017 H
  atom 28.5508160000000011 40.5962969999999999 31.8496200000000016 H
  atom 29.7096739999999997 41.3843159999999983 33.4909419999999969 C
  atom 30.8846780000000010 42.3221980000000002 35.4755329999999987 C
  atom 30.5666450000000012 44.7093679999999978 35.9257909999999967 C
  atom 30.3350259999999992 40.4958200000000019 33.5566829999999996 H
  atom 31.6300740000000005 41.0226669999999984 35.5724680000000006 C
  atom 31.1161929999999991 43.3917509999999993 36.2903289999999998 C
  atom 31.2854500000000009 45.8339670000000012 36.2306469999999976 C
  atom 31.0076019999999986 39.8789969999999983 36.0949120000000008 C
  atom 32.9180240000000026 40.9227840000000000 35.0395830000000004 C
  atom 32.0129639999999966 43.3648280000000028 37.4549680000000009 C
  atom 30.9593179999999997 47.1704999999999970 35.6422049999999970 C
  atom 32.4708109999999976 45.7586709999999997 37.0681299999999965 C
  atom 29.6345649999999985 39.9668569999999974 36.6885109999999983 C
  atom 31.6869520000000016 38.6694419999999965 36.0727410000000006 C
  atom 33.5569660000000027 39.6816299999999984 35.0497659999999982 C
  atom 33.6154549999999972 42.1284259999999975 34.4653199999999984 C
  atom 32.1505420000000015 42.2706289999999996 38.2946430000000007 C
  atom 32.7465649999999968 44.5400199999999984 37.7568589999999986 C
  atom 30.2510270000000006 48.1304129999999972 36.3768230000000017 C
  atom 31.3890610000000017 47.4554320000000018 34.3427330000000026 C
  atom 33.2753719999999973 46.8549030000000002 37.3131750000000011 C
  atom 29.3211750000000002 39.0115520000000018 37.1218829999999969 H
  atom 28.8813490000000002 40.2724029999999971 35.9500249999999966 H
  atom 29.5974070000000005 40.7247989999999973 37.4803619999999995 H
  atom 31.1779830000000011 37.7865260000000021 36.4657660000000021 H
  atom 32.9550199999999975 38.5466049999999996 35.5603509999999972 C
  atom 34.5644769999999966 39.6116469999999978 34.6323780000000028 H
  atom 32.9768139999999974 42.6650479999999988 33.7497789999999966 H
  atom 34.5407760000000010 41.8382450000000006 33.9551220000000029 H
  atom 33.8825369999999992 42.8577640000000031 35.2445390000000032 H
  atom 31.5452860000000008 41.3832379999999986 38.1364790000000013 H
  atom 33.0422870000000017 42.2970479999999966 39.3695650000000015 C
  atom 33.7231019999999972 44.5260189999999980 38.7846029999999971 C
  atom 29.8122170000000004 47.8633340000000018 37.7934679999999972 C
  atom 29.9123510000000010 49.3251289999999969 35.7573149999999984 C
  atom 31.0244509999999991 48.6630660000000006 33.7685990000000018 C
  atom 32.2326740000000029 46.4664870000000008 33.5773069999999976 C
  atom 33.0714380000000006 47.7908380000000008 36.7938249999999982 H
  atom 34.3216170000000034 46.7911829999999966 38.2374099999999970 C
  atom 33.6580849999999998 37.2093289999999968 35.5839410000000029 C
  atom 33.1145660000000035 41.4275349999999989 40.0212989999999991 H
  atom 33.8351789999999966 43.3820639999999997 39.5876689999999982 C
  atom 34.5279590000000027 45.6740989999999982 38.9747350000000026 C
  atom 29.3148060000000008 46.8882919999999999 37.8999409999999983 H
  atom 29.1247900000000008 48.6420109999999966 38.1453729999999993 H
  atom 30.6702550000000009 47.8442289999999986 38.4816810000000018 H
  atom 29.3394820000000003 50.0640080000000012 36.3228129999999965 H
  atom 30.2654229999999984 49.5961769999999973 34.4490780000000001 C
  atom 31.3543769999999995 48.8828060000000022 32.7515539999999987 H
  atom 31.6678190000000015 45.5573849999999965 33.3274929999999969 H
  atom 33.1010879999999972 46.1402110000000008 34.1665229999999980 H
  atom 32.5958800000000011 46.8996799999999965 32.6387640000000019 H
  atom 34.9586340000000035 47.6659909999999982 38.3797190000000015 H
  atom 33.0162029999999973 36.4179120000000012 35.1710640000000012 H
  atom 33.9156639999999996 36.9139929999999978 36.6123290000000026 H
  atom 34.5918180000000035 37.2278140000000022 35.0101930000000010 H
  atom 34.5711749999999967 43.3784780000000012 40.3912499999999994 H
  atom 35.3137139999999974 45.6364060000000009 39.7293329999999969 H
  atom 29.8401519999999998 50.8807880000000026 33.7760760000000033 C
  atom 28.9445459999999990 50.7262600000000035 33.1538609999999991 H
  atom 29.6040589999999995 51.6630749999999992 34.5052799999999991 H
  atom 30.6267940000000003 51.2513059999999996 33.1100339999999989 H
  
  -----------------------------------------------------------------------
  Completed first pass over input file geometry.in .
  -----------------------------------------------------------------------
  

  Basic array size parameters:
  | Number of species                 :        2
  | Number of atoms                   :       76
  | Max. basis fn. angular momentum   :        4
  | Max. atomic/ionic basis occupied n:        2
  | Max. number of basis fn. types    :        2
  | Max. radial fns per species/type  :        8
  | Max. logarithmic grid size        :     1277
  | Max. radial integration grid size :       69
  | Max. angular integration grid size:      434
  | Max. angular grid division number :        8
  | Radial grid for Hartree potential :     1277
  | Number of spin channels           :        1

------------------------------------------------------------
          Reading file control.in.
------------------------------------------------------------
  XC: Using PBE gradient-corrected functionals.
  Scalar relativistic treatment of kinetic energy: ZORA.
  Threshold value for ZORA:   0.100000E-11
  Occupation type: Gaussian broadening, width =   0.100000E-03 eV.
  Since 'load_balancing .true.' is present in control.in, automatically turning on 'use_local_index .true.'.
  Using load balancing for integrations.
  Kohn-Sham electronic structure solved by the ELSI library.
  Using pulay charge density mixing.
  Pulay mixing - number of memorized iterations:    5
  Charge density mixing - mixing parameter:     0.4000
  Convergence accuracy of total energy:  0.1000E-05
  Convergence accuracy of sum of eigenvalues:  0.1000E-03
  Convergence accuracy of self-consistent charge density:  0.1000E-05
  Maximum number of s.-c. iterations  :   100
  * Ignoring prodbas_threshold
  Threshold for basis singularities:  0.1000E-04
  override_illconditioning: Explicitly overriding any built-in checks for an ill-conditioned overlap matrix.
  *** WARNING: If you use this flag, you should really know what you are doing.
  *** DO NOT keep this flag set by default in all your control.in files.
  Using 1D integrations for auxiliary 2-center integrals.
  Spin treatment: No spin polarisation.
  Charge =   0.000000E+00: Neutral system requested explicitly.
 
  Reading configuration options for species H                   .
  | Found nuclear charge :   1.0000
  | Found atomic mass :    1.00794000000000      amu
  | Found l_max for Hartree potential  :   6
  | Found cutoff potl. onset [A], width [A], scale factor :    4.00000    2.00000    1.00000
  | Threshold for basis-dependent cutoff potential is   0.100000E-03
  | Found data for basic radial integration grid :    24 points, outermost radius =    7.000 A
  | Found multiplier for basic radial grid :   2
  | Found angular grid specification: user-specified.
  | Specified grid contains     6 separate shells.
  | Check grid settings after all constraints further below.
  | Found free-atom valence shell :  1 s   1.000
  | No ionic wave fns used. Skipping ion_occ.
  | Found hydrogenic basis function :  2 s   2.100
  | Found hydrogenic basis function :  2 p   3.500
  | Found hydrogenic basis function :  1 s   0.850
  | Found hydrogenic basis function :  2 p   3.700
  | Found hydrogenic basis function :  2 s   1.200
  | Found hydrogenic basis function :  3 d   7.000
  Species H                   : Missing cutoff potential type.
  Defaulting to exp(1/x)/(1-x)^2 type cutoff potential.
  Species H : No 'logarithmic' tag. Using default grid for free atom:
  | Default logarithmic grid data [bohr] : 0.1000E-03 0.1000E+03 0.1012E+01
  Species H : On-site basis accuracy parameter (for Gram-Schmidt orthonormalisation) not specified.
  Using default value basis_acc =  0.1000000E-03.
  Species H                   : Using default innermost maximum threshold i_radial=  2 for radial functions.
  Species H                   : Default cutoff onset for free atom density etc. : 0.40000000E+01 AA.
  Species H                   : Basic radial grid will be enhanced according to radial_multiplier =   2, to contain    49 grid points.
 
  Reading configuration options for species C                   .
  | Found nuclear charge :   6.0000
  | Found atomic mass :    12.0107000000000      amu
  | Found l_max for Hartree potential  :   6
  | Found cutoff potl. onset [A], width [A], scale factor :    4.00000    2.00000    1.00000
  | Threshold for basis-dependent cutoff potential is   0.100000E-03
  | Found data for basic radial integration grid :    34 points, outermost radius =    7.000 A
  | Found multiplier for basic radial grid :   2
  | Found angular grid specification: user-specified.
  | Specified grid contains     6 separate shells.
  | Check grid settings after all constraints further below.
  | Found free-atom valence shell :  2 s   2.000
  | Found free-atom valence shell :  2 p   2.000
  | No ionic wave fns used. Skipping ion_occ.
  | No ionic wave fns used. Skipping ion_occ.
  | Found hydrogenic basis function :  2 p   1.700
  | Found hydrogenic basis function :  3 d   6.000
  | Found hydrogenic basis function :  2 s   4.900
  | Found hydrogenic basis function :  4 f   9.800
  | Found hydrogenic basis function :  3 p   5.200
  | Found hydrogenic basis function :  3 s   4.300
  | Found hydrogenic basis function :  5 g  14.400
  | Found hydrogenic basis function :  3 d   6.200
  Species C                   : Missing cutoff potential type.
  Defaulting to exp(1/x)/(1-x)^2 type cutoff potential.
  Species C : No 'logarithmic' tag. Using default grid for free atom:
  | Default logarithmic grid data [bohr] : 0.1000E-03 0.1000E+03 0.1012E+01
  Species C : On-site basis accuracy parameter (for Gram-Schmidt orthonormalisation) not specified.
  Using default value basis_acc =  0.1000000E-03.
  Species C                   : Using default innermost maximum threshold i_radial=  2 for radial functions.
  Species C                   : Default cutoff onset for free atom density etc. : 0.40000000E+01 AA.
  Species C                   : Basic radial grid will be enhanced according to radial_multiplier =   2, to contain    69 grid points.
 
  Finished reading input file 'control.in'. Consistency checks are next.
 
  MPI_IN_PLACE appears to work with this MPI implementation.
  | Keeping use_mpi_in_place .true. (see manual).
  Target number of points in a grid batch is not set. Defaulting to  100
  Method for grid partitioning is not set. Defaulting to parallel hash+maxmin partitioning.
  Batch size limit is not set. Defaulting to    200
  By default, will store active basis functions for each batch.
  If in need of memory, prune_basis_once .false. can be used to disable this option.
  communication_type for Hartree potential was not specified.
  Defaulting to calc_hartree .
  Pulay mixer: Number of initial linear mixing iterations not set.
  Defaulting to    0 iterations.
  Work space size for distributed Hartree potential not set.
  Defaulting to   0.200000E+03 MB.
  Algorithm-dependent basis array size parameters:
  | n_max_pulay                         :        5
  Presetting      1001 iterations before the initial mixing cycle
  is restarted anyway using the sc_init_iter criterion / keyword.
  Presetting a factor      1.000 between actual scf density residual
  and density convergence criterion sc_accuracy_rho below which sc_init_iter
  takes no effect.
  Calculation of forces was not defined in control.in. No forces will be calculated.
  Geometry relaxation not requested: no relaxation will be performed.
  No accuracy limit for integral partition fn. given. Defaulting to  0.1000E-14.
  No threshold value for u(r) in integrations given. Defaulting to  0.1000E-05.
  No accuracy for occupation numbers given. Defaulting to  0.1000E-12.
  No threshold value for occupation numbers given. Defaulting to  0.0000E+00.
  No accuracy for fermi level given. Defaulting to  0.1000E-19.
  Maximum # of iterations to find E_F not set. Defaulting to  200.
  Will not use alltoall communication since running on < 1024 CPUs.
  partition_type (choice of integration weights) for integrals was not specified.
  | Using a version of the partition function of Stratmann and coworkers ('stratmann_sparse').
  | At each grid point, the set of atoms used to build the partition table is smoothly restricted to
  | only those atoms whose free-atom density would be non-zero at that grid point.
  Partitioning for Hartree potential was not defined. Using partition_type for integrals.
  | Adjusted default value of keyword multip_moments_threshold to:       0.10000000E-11
  | This value may affect high angular momentum components of the Hartree potential in periodic systems.
  No q(lm)/r^(l+1) cutoff set for long-range Hartree potential.
  | Using default value of  0.100000E-09 .
  | Verify using the multipole_threshold keyword.
  Defaulting to new monopole extrapolation.
  Density update method: automatic selection selected.
 * Warning: use_local_index and/or load_balancing needs packed_matrix_format = index
 * Changing the default setting to packed_matrix_format = index
------------------------------------------------------------


------------------------------------------------------------
          Reading geometry description geometry.in.
------------------------------------------------------------
  Input structure read successfully.
  The structure contains       76 atoms,  and a total of        286.000 electrons.

  Input geometry:
  | No unit cell requested.
  | Atomic structure:
  |       Atom                x [A]            y [A]            z [A]
  |    1: Species H            26.27445800       44.68240800       32.68478200
  |    2: Species C            27.12153400       44.68412200       33.37338200
  |    3: Species C            28.00256400       43.58594000       33.37312500
  |    4: Species C            27.31794900       45.71468100       34.22904100
  |    5: Species C            27.83641000       42.48492700       32.50238500
  |    6: Species C            29.09368000       43.57586900       34.28214900
  |    7: Species H            26.61342500       46.54719200       34.25791500
  |    8: Species C            28.42259600       45.74154300       35.08328100
  |    9: Species H            27.01022500       42.50554400       31.79096900
  |   10: Species C            28.68546400       41.42748400       32.54144200
  |   11: Species C            29.92034400       42.41707900       34.38011500
  |   12: Species C            29.34758900       44.71089700       35.09733200
  |   13: Species H            28.53792800       46.59041900       35.74726100
  |   14: Species H            28.55081600       40.59629700       31.84962000
  |   15: Species C            29.70967400       41.38431600       33.49094200
  |   16: Species C            30.88467800       42.32219800       35.47553300
  |   17: Species C            30.56664500       44.70936800       35.92579100
  |   18: Species H            30.33502600       40.49582000       33.55668300
  |   19: Species C            31.63007400       41.02266700       35.57246800
  |   20: Species C            31.11619300       43.39175100       36.29032900
  |   21: Species C            31.28545000       45.83396700       36.23064700
  |   22: Species C            31.00760200       39.87899700       36.09491200
  |   23: Species C            32.91802400       40.92278400       35.03958300
  |   24: Species C            32.01296400       43.36482800       37.45496800
  |   25: Species C            30.95931800       47.17050000       35.64220500
  |   26: Species C            32.47081100       45.75867100       37.06813000
  |   27: Species C            29.63456500       39.96685700       36.68851100
  |   28: Species C            31.68695200       38.66944200       36.07274100
  |   29: Species C            33.55696600       39.68163000       35.04976600
  |   30: Species C            33.61545500       42.12842600       34.46532000
  |   31: Species C            32.15054200       42.27062900       38.29464300
  |   32: Species C            32.74656500       44.54002000       37.75685900
  |   33: Species C            30.25102700       48.13041300       36.37682300
  |   34: Species C            31.38906100       47.45543200       34.34273300
  |   35: Species C            33.27537200       46.85490300       37.31317500
  |   36: Species H            29.32117500       39.01155200       37.12188300
  |   37: Species H            28.88134900       40.27240300       35.95002500
  |   38: Species H            29.59740700       40.72479900       37.48036200
  |   39: Species H            31.17798300       37.78652600       36.46576600
  |   40: Species C            32.95502000       38.54660500       35.56035100
  |   41: Species H            34.56447700       39.61164700       34.63237800
  |   42: Species H            32.97681400       42.66504800       33.74977900
  |   43: Species H            34.54077600       41.83824500       33.95512200
  |   44: Species H            33.88253700       42.85776400       35.24453900
  |   45: Species H            31.54528600       41.38323800       38.13647900
  |   46: Species C            33.04228700       42.29704800       39.36956500
  |   47: Species C            33.72310200       44.52601900       38.78460300
  |   48: Species C            29.81221700       47.86333400       37.79346800
  |   49: Species C            29.91235100       49.32512900       35.75731500
  |   50: Species C            31.02445100       48.66306600       33.76859900
  |   51: Species C            32.23267400       46.46648700       33.57730700
  |   52: Species H            33.07143800       47.79083800       36.79382500
  |   53: Species C            34.32161700       46.79118300       38.23741000
  |   54: Species C            33.65808500       37.20932900       35.58394100
  |   55: Species H            33.11456600       41.42753500       40.02129900
  |   56: Species C            33.83517900       43.38206400       39.58766900
  |   57: Species C            34.52795900       45.67409900       38.97473500
  |   58: Species H            29.31480600       46.88829200       37.89994100
  |   59: Species H            29.12479000       48.64201100       38.14537300
  |   60: Species H            30.67025500       47.84422900       38.48168100
  |   61: Species H            29.33948200       50.06400800       36.32281300
  |   62: Species C            30.26542300       49.59617700       34.44907800
  |   63: Species H            31.35437700       48.88280600       32.75155400
  |   64: Species H            31.66781900       45.55738500       33.32749300
  |   65: Species H            33.10108800       46.14021100       34.16652300
  |   66: Species H            32.59588000       46.89968000       32.63876400
  |   67: Species H            34.95863400       47.66599100       38.37971900
  |   68: Species H            33.01620300       36.41791200       35.17106400
  |   69: Species H            33.91566400       36.91399300       36.61232900
  |   70: Species H            34.59181800       37.22781400       35.01019300
  |   71: Species H            34.57117500       43.37847800       40.39125000
  |   72: Species H            35.31371400       45.63640600       39.72933300
  |   73: Species C            29.84015200       50.88078800       33.77607600
  |   74: Species H            28.94454600       50.72626000       33.15386100
  |   75: Species H            29.60405900       51.66307500       34.50528000
  |   76: Species H            30.62679400       51.25130600       33.11003400
  |

  | The smallest distance between any two atoms is         1.08386409 AA.
  |
  | The first atom of this pair is atom number                      8 .
  | The second atom of this pair is atom number                    13 .

  Number of empty states per atom not set in control.in - providing a guess from actual geometry.
  | Total number of empty states used during s.c.f. cycle:      177
  If you use a very high smearing, use empty_states (per atom!) in control.in to increase this value.

  Structure-dependent array size parameters: 
  | Maximum number of distinct radial functions  :       18
  | Maximum number of basis functions            :     2148
  | Number of Kohn-Sham states (occupied + empty):      320
------------------------------------------------------------

------------------------------------------------------------
          Preparing all fixed parts of the calculation.
------------------------------------------------------------
  Determining machine precision:
    2.225073858507201E-308
  Setting up grids for atomic and cluster calculations.

  Creating wave function, potential, and density for free atoms.

  Species: H

  List of occupied orbitals and eigenvalues:
    n    l              occ      energy [Ha]    energy [eV]
    1    0           1.0000        -0.238386        -6.4868


  Species: C

  List of occupied orbitals and eigenvalues:
    n    l              occ      energy [Ha]    energy [eV]
    1    0           2.0000       -10.049212      -273.4530
    2    0           2.0000        -0.504761       -13.7352
    2    1           2.0000        -0.193631        -5.2690

  Creating fixed part of basis set: Ionic, confined, hydrogenic.
 
  H                    hydrogenic:
 
  List of hydrogenic basis orbitals: 
    n    l      effective z      eigenvalue [eV]  inner max. [A]     outer max. [A]     outer radius [A]   
    2    0         2.100000       -14.9965           0.193243           1.317208           5.373006
    2    1         3.500000       -41.6672           0.602369           0.602369           4.056063
    1    0         0.850000        -9.8292           0.624871           0.624871           5.373006
    2    1         3.700000       -46.5653           0.573622           0.573622           3.910002
    2    0         1.200000        -4.5995           0.334980           2.228188           5.505995
    3    2         7.000000       -74.0753           0.680699           0.680699           3.769201
 
 
  C                    hydrogenic:
 
  List of hydrogenic basis orbitals: 
    n    l      effective z      eigenvalue [eV]  inner max. [A]     outer max. [A]     outer radius [A]   
    2    1         1.700000        -9.8152           1.245706           1.245706           5.401630
    3    2         6.000000       -54.4226           0.792453           0.792453           4.178599
    2    0         4.900000       -81.6681           0.082559           0.562749           3.353238
    4    3         9.800000       -81.6681           0.863254           0.863254           4.028125
    3    1         5.200000       -40.8774           0.305389           1.215618           4.898362
    3    0         4.300000       -27.9508           0.091041           1.610311           5.401630
    5    4        14.400000      -112.8510           0.917666           0.917666           3.883070
    3    2         6.200000       -58.1113           0.763917           0.763917           4.077671
 

  Adding cutoff potential to free-atom effective potential.
  Creating atomic-like basis functions for current effective potential.

  Species H                   :

  List of atomic basis orbitals and eigenvalues:
    n    l      energy [Ha]    energy [eV]    outer radius [A]
    1    0        -0.238386        -6.4868       5.373006


  Species C                   :

  List of atomic basis orbitals and eigenvalues:
    n    l      energy [Ha]    energy [eV]    outer radius [A]
    1    0       -10.049212      -273.4530       1.934409
    2    0        -0.504761       -13.7352       5.271162
    2    1        -0.193631        -5.2690       5.401630

  Assembling full basis from fixed parts.
  | Species H :   atomic orbital   1 s accepted.
  | Species H :    hydro orbital   2 s accepted.
  | Species H :    hydro orbital   1 s accepted.
  | Species H :    hydro orbital   2 s accepted.
  | Species H :    hydro orbital   2 p accepted.
  | Species H :    hydro orbital   2 p accepted.
  | Species H :    hydro orbital   3 d accepted.
  | Species C :   atomic orbital   1 s accepted.
  | Species C :    hydro orbital   2 s accepted.
  | Species C :   atomic orbital   2 s accepted.
  | Species C :    hydro orbital   3 s accepted.
  | Species C :    hydro orbital   3 p accepted.
  | Species C :   atomic orbital   2 p accepted.
  | Species C :    hydro orbital   2 p accepted.
  | Species C :    hydro orbital   3 d accepted.
  | Species C :    hydro orbital   3 d accepted.
  | Species C :    hydro orbital   4 f accepted.
  | Species C :    hydro orbital   5 g accepted.
 
  Basis size parameters after reduction:
  | Total number of radial functions:       18
  | Total number of basis functions :     2148
 
  Per-task memory consumption for arrays in subroutine allocate_ext:
  |           4.463496MB.
  Testing on-site integration grid accuracy.
  |  Species  Function  <phi|h_atom|phi> (log., in eV)  <phi|h_atom|phi> (rad., in eV)
           1        1                 -6.4870767962                 -6.4871688290
           1        2                 13.5032046589                 13.5028982997
           1        3                 32.8195184817                 32.8119941656
           1        4                 33.8513856511                 33.7670005767 ***
           1        5                 28.8544614965                 28.8544615203
           1        6                 59.6326952547                 59.6327656460
           1        7                 60.2719308513                 60.2719305949
           2        8               -273.4529726040               -273.4529710464
           2        9                -10.7721037319                -10.7721022101
           2       10                 17.6044132601                 17.6044162063
           2       11                 53.7706460658                 53.7706913770
           2       12                 15.0973290362                 15.0973256030
           2       13                  3.8545134692                  3.8545724687
           2       14                 12.1156992592                 12.1182024431
           2       15                 29.4352039302                 29.4352041816
           2       16                 54.8741144708                 54.8740268729
           2       17                 59.3556032049                 59.3556031382
           2       18                 93.4551837154                 93.4551838009
 * Note: Onsite integrals marked "***" above are less accurate than
 * onsite_accuracy_threshold =    0.03000 eV. Usually, this is harmless.
 * When in doubt, tighten the "radial" and/or "radial_multiplier" flags to check.

  Preparing densities etc. for the partition functions (integrals / Hartree potential).

  Preparations completed.
  max(cpu_time)          :      0.195 s.
  Wall clock time (cpu1) :      0.180 s.
------------------------------------------------------------

------------------------------------------------------------
          Begin self-consistency loop: Initialization.

          Date     :  20210620, Time     :  172022.657
------------------------------------------------------------

  Initializing index lists of integration centers etc. from given atomic structure:
  | Number of centers in hartree potential         :        76
  | Number of centers in hartree multipole         :        76
  | Number of centers in electron density summation:        76
  | Number of centers in basis integrals           :        76
  | Number of centers in integrals                 :        76
  | Number of centers in hamiltonian               :        76
  * Using 56 tasks for Scalapack Eigenvalue solver.
  Detailed listing of tasks and assigned k-points:
  (for non-periodic systems, the "k-point" denotes an internal label only)
   Task     0 k-point     1 on d021
   Task     1 k-point     1 on d021
   Task     2 k-point     1 on d021
   Task     3 k-point     1 on d021
   Task     4 k-point     1 on d021
   Task     5 k-point     1 on d021
   Task     6 k-point     1 on d021
   Task     7 k-point     1 on d021
   Task     8 k-point     1 on d021
   Task     9 k-point     1 on d021
   Task    10 k-point     1 on d021
   Task    11 k-point     1 on d021
   Task    12 k-point     1 on d021
   Task    13 k-point     1 on d021
   Task    14 k-point     1 on d021
   Task    15 k-point     1 on d021
   Task    16 k-point     1 on d021
   Task    17 k-point     1 on d021
   Task    18 k-point     1 on d021
   Task    19 k-point     1 on d021
   Task    20 k-point     1 on d021
   Task    21 k-point     1 on d021
   Task    22 k-point     1 on d021
   Task    23 k-point     1 on d021
   Task    24 k-point     1 on d021
   Task    25 k-point     1 on d021
   Task    26 k-point     1 on d021
   Task    27 k-point     1 on d021
   Task    28 k-point     1 on d021
   Task    29 k-point     1 on d021
   Task    30 k-point     1 on d021
   Task    31 k-point     1 on d021
   Task    32 k-point     1 on d021
   Task    33 k-point     1 on d021
   Task    34 k-point     1 on d021
   Task    35 k-point     1 on d021
   Task    36 k-point     1 on d021
   Task    37 k-point     1 on d021
   Task    38 k-point     1 on d021
   Task    39 k-point     1 on d021
   Task    40 k-point     1 on d021
   Task    41 k-point     1 on d021
   Task    42 k-point     1 on d021
   Task    43 k-point     1 on d021
   Task    44 k-point     1 on d021
   Task    45 k-point     1 on d021
   Task    46 k-point     1 on d021
   Task    47 k-point     1 on d021
   Task    48 k-point     1 on d021
   Task    49 k-point     1 on d021
   Task    50 k-point     1 on d021
   Task    51 k-point     1 on d021
   Task    52 k-point     1 on d021
   Task    53 k-point     1 on d021
   Task    54 k-point     1 on d021
   Task    55 k-point     1 on d021
  Tasks:    56 split into      8 X      7 BLACS grid
  Calculating block size based on n_basis =         2148 max_nprow =            8 max_npcol =            7
  ScaLAPACK block size set to:           16
  Allocating        0.696 MB for ovlp
  Allocating        0.696 MB for ham
  Allocating        0.696 MB for eigenvec
  Required Scalapack workspace - INTEGER:            1 REAL:             1
  Partitioning the integration grid into batches with parallel hashing+maxmin method.
  | Number of batches:    10750
  | Maximal batch size:     200
  | Minimal batch size:       1
  | Average batch size:     116.333
  | Standard deviation of batch sizes:      34.867

  Integration load balanced across     56 MPI tasks.
  Work distribution over tasks is as follows:
  Task      0 has      22504 integration points.
  Task      1 has      22307 integration points.
  Task      2 has      22271 integration points.
  Task      3 has      22549 integration points.
  Task      4 has      22211 integration points.
  Task      5 has      22310 integration points.
  Task      6 has      22255 integration points.
  Task      7 has      22428 integration points.
  Task      8 has      22316 integration points.
  Task      9 has      22271 integration points.
  Task     10 has      22414 integration points.
  Task     11 has      22329 integration points.
  Task     12 has      22387 integration points.
  Task     13 has      22184 integration points.
  Task     14 has      22456 integration points.
  Task     15 has      22360 integration points.
  Task     16 has      22284 integration points.
  Task     17 has      22405 integration points.
  Task     18 has      22265 integration points.
  Task     19 has      22326 integration points.
  Task     20 has      22276 integration points.
  Task     21 has      22391 integration points.
  Task     22 has      22433 integration points.
  Task     23 has      22233 integration points.
  Task     24 has      22356 integration points.
  Task     25 has      22343 integration points.
  Task     26 has      22393 integration points.
  Task     27 has      22181 integration points.
  Task     28 has      22524 integration points.
  Task     29 has      22321 integration points.
  Task     30 has      22224 integration points.
  Task     31 has      22370 integration points.
  Task     32 has      22322 integration points.
  Task     33 has      22380 integration points.
  Task     34 has      22277 integration points.
  Task     35 has      22353 integration points.
  Task     36 has      22370 integration points.
  Task     37 has      22293 integration points.
  Task     38 has      22369 integration points.
  Task     39 has      22237 integration points.
  Task     40 has      22298 integration points.
  Task     41 has      22267 integration points.
  Task     42 has      22399 integration points.
  Task     43 has      22350 integration points.
  Task     44 has      22325 integration points.
  Task     45 has      22411 integration points.
  Task     46 has      22278 integration points.
  Task     47 has      22377 integration points.
  Task     48 has      22221 integration points.
  Task     49 has      22328 integration points.
  Task     50 has      22456 integration points.
  Task     51 has      22200 integration points.
  Task     52 has      22401 integration points.
  Task     53 has      22205 integration points.
  Task     54 has      22411 integration points.
  Task     55 has      22171 integration points.
  Initializing partition tables, free-atom densities, potentials, etc. across the integration grid (initialize_grid_storage).
  | initialize_grid_storage: Actual outermost partition radius vs. multipole_radius_free
  | (-- VB: in principle, multipole_radius_free should be larger, hence this output)
  | Species        1: Confinement radius =              6.000000000000000 AA, multipole_radius_free =              6.071692442739658 AA.
  | Species        1: outer_partition_radius set to              6.071692442739658 AA .
  | Species        2: Confinement radius =              6.000000000000000 AA, multipole_radius_free =              6.029870734432609 AA.
  | Species        2: outer_partition_radius set to              6.029870734432609 AA .
  | The sparse table of interatomic distances needs     68.5160 kbyte instead of    46.2080 kbyte of memory.
  | Using the partition_type stratmann_smoother will reduce your memory usage.
  | Net number of integration points:  1250576
  | of which are non-zero points    :   965539
  Renormalizing the initial density to the exact electron count on the 3D integration grid.
  | Initial density: Formal number of electrons (from input files) :     286.0000000000
  | Integrated number of electrons on 3D grid     :     285.9999446571
  | Charge integration error                      :      -0.0000553429
  | Normalization factor for density and gradient :       1.0000001935
  Obtaining max. number of non-zero basis functions in each batch (get_n_compute_maxes).
  | Maximal number of non-zero basis functions:     1349
  Selecting the method for density update.
  Loop over occupied states selected for charge density update.
  Hamiltonian matrix size:
  | Size of matrix non-packed:               2308026
  | Size of matrix packed:         1997305
  Allocating        5.499 MB for KS_eigenvector
  use_local_index: Max. local matrix size =      1531524
  Task:     0 matrix size:     408343
  Task:     1 matrix size:     612827
  Task:     2 matrix size:     779117
  Task:     3 matrix size:     260278
  Task:     4 matrix size:     586962
  Task:     5 matrix size:     956944
  Task:     6 matrix size:    1246977
  Task:     7 matrix size:     626280
  Task:     8 matrix size:     460573
  Task:     9 matrix size:     542146
  Task:    10 matrix size:    1295355
  Task:    11 matrix size:    1225793
  Task:    12 matrix size:    1531524
  Task:    13 matrix size:    1384955
  Task:    14 matrix size:     370639
  Task:    15 matrix size:     386615
  Task:    16 matrix size:     241849
  Task:    17 matrix size:    1123299
  Task:    18 matrix size:     622674
  Task:    19 matrix size:    1336659
  Task:    20 matrix size:     996743
  Task:    21 matrix size:     169647
  Task:    22 matrix size:     674734
  Task:    23 matrix size:     593397
  Task:    24 matrix size:    1327444
  Task:    25 matrix size:    1109474
  Task:    26 matrix size:     602290
  Task:    27 matrix size:     434717
  Task:    28 matrix size:     292875
  Task:    29 matrix size:     966033
  Task:    30 matrix size:    1229848
  Task:    31 matrix size:     608128
  Task:    32 matrix size:     750815
  Task:    33 matrix size:     146611
  Task:    34 matrix size:     220116
  Task:    35 matrix size:    1355451
  Task:    36 matrix size:    1448404
  Task:    37 matrix size:    1139103
  Task:    38 matrix size:     701231
  Task:    39 matrix size:     368392
  Task:    40 matrix size:     618054
  Task:    41 matrix size:     483367
  Task:    42 matrix size:    1482647
  Task:    43 matrix size:     924337
  Task:    44 matrix size:    1286294
  Task:    45 matrix size:     572654
  Task:    46 matrix size:     247440
  Task:    47 matrix size:     775147
  Task:    48 matrix size:     746731
  Task:    49 matrix size:    1238276
  Task:    50 matrix size:     881891
  Task:    51 matrix size:     327599
  Task:    52 matrix size:     875492
  Task:    53 matrix size:     676167
  Task:    54 matrix size:     643582
  Task:    55 matrix size:     296132
  Integrating Hamiltonian matrix: batch-based integration.
  Time summed over all CPUs for integration: real work      309.852 s, elapsed      675.739 s
  Time get_set_sparse_local_matrix_scalapack:     0.030318 s
  Start compute_balanced_batch_distribution
  Done load balancing, time needed:      0.013 s
  Integrating overlap matrix with loadbalancing
  Time summed over all CPUs for integration: real work       90.438 s, elapsed      110.259 s
  Time get_set_full_local_matrix_scalapack:     0.034824 s

  Updating Kohn-Sham eigenvalues and eigenvectors using ELSI and the ELPA eigensolver.
  Overlap matrix is not singular
  | Lowest and highest eigenvalues :  0.15E+02,  0.88E-04
  Finished singularity check of overlap matrix
  | Time :     0.171 s
  Finished Cholesky decomposition
  | Time :     0.037 s
  Finished transformation to standard eigenproblem
  | Time :     0.052 s
  Starting ELPA eigensolver
  Finished solving standard eigenproblem
  | Time :     0.187 s
  Finished back-transformation of eigenvectors
  | Time :     0.009 s

  Obtaining occupation numbers and chemical potential using ELSI.
  | Chemical potential (Fermi level):    -8.06144736 eV
  Writing Kohn-Sham eigenvalues.

  State    Occupation    Eigenvalue [Ha]    Eigenvalue [eV]
      1       2.00000         -10.182111         -277.06933
      2       2.00000         -10.180486         -277.02512
      3       2.00000         -10.180476         -277.02484
      4       2.00000         -10.180361         -277.02172
      5       2.00000         -10.180263         -277.01905
      6       2.00000         -10.179781         -277.00594
      7       2.00000         -10.175739         -276.89594
      8       2.00000         -10.175358         -276.88559
      9       2.00000         -10.175165         -276.88031
     10       2.00000         -10.174630         -276.86576
     11       2.00000         -10.174174         -276.85336
     12       2.00000         -10.174030         -276.84944
     13       2.00000         -10.173779         -276.84261
     14       2.00000         -10.173202         -276.82692
     15       2.00000         -10.172985         -276.82101
     16       2.00000         -10.172965         -276.82045
     17       2.00000         -10.172637         -276.81154
     18       2.00000         -10.172157         -276.79849
     19       2.00000         -10.171809         -276.78901
     20       2.00000         -10.171472         -276.77983
     21       2.00000         -10.171247         -276.77372
     22       2.00000         -10.171231         -276.77328
     23       2.00000         -10.169564         -276.72792
     24       2.00000         -10.168588         -276.70137
     25       2.00000         -10.168206         -276.69095
     26       2.00000         -10.166951         -276.65681
     27       2.00000         -10.166544         -276.64574
     28       2.00000         -10.166239         -276.63744
     29       2.00000         -10.165872         -276.62744
     30       2.00000         -10.165515         -276.61774
     31       2.00000         -10.164827         -276.59901
     32       2.00000         -10.164780         -276.59774
     33       2.00000         -10.164439         -276.58845
     34       2.00000         -10.164217         -276.58241
     35       2.00000         -10.164168         -276.58108
     36       2.00000         -10.163569         -276.56477
     37       2.00000         -10.163140         -276.55310
     38       2.00000         -10.162677         -276.54051
     39       2.00000         -10.161322         -276.50364
     40       2.00000         -10.160626         -276.48469
     41       2.00000         -10.159998         -276.46761
     42       2.00000         -10.159560         -276.45568
     43       2.00000          -1.024786          -27.88585
     44       2.00000          -1.014469          -27.60511
     45       2.00000          -1.007056          -27.40339
     46       2.00000          -1.004827          -27.34274
     47       2.00000          -0.972380          -26.45979
     48       2.00000          -0.971411          -26.43345
     49       2.00000          -0.967511          -26.32730
     50       2.00000          -0.938869          -25.54793
     51       2.00000          -0.920995          -25.06156
     52       2.00000          -0.920746          -25.05477
     53       2.00000          -0.918141          -24.98388
     54       2.00000          -0.917792          -24.97439
     55       2.00000          -0.897134          -24.41225
     56       2.00000          -0.886919          -24.13429
     57       2.00000          -0.883013          -24.02799
     58       2.00000          -0.880715          -23.96548
     59       2.00000          -0.873358          -23.76527
     60       2.00000          -0.843818          -22.96147
     61       2.00000          -0.839297          -22.83843
     62       2.00000          -0.838649          -22.82079
     63       2.00000          -0.829580          -22.57401
     64       2.00000          -0.822404          -22.37875
     65       2.00000          -0.822276          -22.37526
     66       2.00000          -0.814735          -22.17007
     67       2.00000          -0.785463          -21.37353
     68       2.00000          -0.774882          -21.08562
     69       2.00000          -0.768593          -20.91448
     70       2.00000          -0.767664          -20.88920
     71       2.00000          -0.759110          -20.65642
     72       2.00000          -0.742038          -20.19188
     73       2.00000          -0.726081          -19.75768
     74       2.00000          -0.725582          -19.74409
     75       2.00000          -0.725274          -19.73571
     76       2.00000          -0.722329          -19.65557
     77       2.00000          -0.704738          -19.17691
     78       2.00000          -0.674135          -18.34414
     79       2.00000          -0.673536          -18.32784
     80       2.00000          -0.658170          -17.90971
     81       2.00000          -0.657868          -17.90149
     82       2.00000          -0.652976          -17.76838
     83       2.00000          -0.650884          -17.71146
     84       2.00000          -0.650375          -17.69760
     85       2.00000          -0.647296          -17.61381
     86       2.00000          -0.646175          -17.58331
     87       2.00000          -0.625595          -17.02332
     88       2.00000          -0.622629          -16.94259
     89       2.00000          -0.606521          -16.50427
     90       2.00000          -0.604784          -16.45700
     91       2.00000          -0.596387          -16.22850
     92       2.00000          -0.590354          -16.06434
     93       2.00000          -0.589876          -16.05134
     94       2.00000          -0.587910          -15.99785
     95       2.00000          -0.575435          -15.65837
     96       2.00000          -0.573854          -15.61537
     97       2.00000          -0.569791          -15.50479
     98       2.00000          -0.566728          -15.42145
     99       2.00000          -0.564036          -15.34820
    100       2.00000          -0.563159          -15.32433
    101       2.00000          -0.560034          -15.23931
    102       2.00000          -0.559393          -15.22185
    103       2.00000          -0.552795          -15.04231
    104       2.00000          -0.550611          -14.98288
    105       2.00000          -0.548970          -14.93824
    106       2.00000          -0.547045          -14.88585
    107       2.00000          -0.546213          -14.86320
    108       2.00000          -0.541481          -14.73444
    109       2.00000          -0.541342          -14.73067
    110       2.00000          -0.540798          -14.71587
    111       2.00000          -0.538273          -14.64715
    112       2.00000          -0.537084          -14.61481
    113       2.00000          -0.534534          -14.54542
    114       2.00000          -0.531213          -14.45503
    115       2.00000          -0.528201          -14.37307
    116       2.00000          -0.526139          -14.31698
    117       2.00000          -0.525365          -14.29591
    118       2.00000          -0.516696          -14.06000
    119       2.00000          -0.516495          -14.05454
    120       2.00000          -0.509907          -13.87527
    121       2.00000          -0.509433          -13.86239
    122       2.00000          -0.503653          -13.70510
    123       2.00000          -0.502893          -13.68441
    124       2.00000          -0.502526          -13.67443
    125       2.00000          -0.496973          -13.52333
    126       2.00000          -0.495248          -13.47638
    127       2.00000          -0.481152          -13.09281
    128       2.00000          -0.478459          -13.01953
    129       2.00000          -0.477213          -12.98562
    130       2.00000          -0.475486          -12.93862
    131       2.00000          -0.475146          -12.92939
    132       2.00000          -0.468299          -12.74307
    133       2.00000          -0.441072          -12.00218
    134       2.00000          -0.413725          -11.25803
    135       2.00000          -0.401690          -10.93055
    136       2.00000          -0.400056          -10.88609
    137       2.00000          -0.394573          -10.73688
    138       2.00000          -0.393541          -10.70879
    139       2.00000          -0.392122          -10.67019
    140       2.00000          -0.391121          -10.64294
    141       2.00000          -0.390135          -10.61612
    142       2.00000          -0.379812          -10.33522
    143       2.00000          -0.338387           -9.20799
    144       0.00000          -0.278128           -7.56824
    145       0.00000          -0.233656           -6.35811
    146       0.00000          -0.220590           -6.00255
    147       0.00000          -0.217403           -5.91583
    148       0.00000          -0.215939           -5.87599
    149       0.00000          -0.209723           -5.70686
    150       0.00000          -0.208788           -5.68140
    151       0.00000          -0.205917           -5.60329
    152       0.00000          -0.205255           -5.58528
    153       0.00000          -0.186753           -5.08180
    154       0.00000          -0.163109           -4.43843
    155       0.00000          -0.118567           -3.22636
    156       0.00000          -0.115936           -3.15477
    157       0.00000          -0.108875           -2.96263
    158       0.00000          -0.082119           -2.23457
    159       0.00000          -0.081921           -2.22919
    160       0.00000          -0.079249           -2.15649
    161       0.00000          -0.076583           -2.08394
    162       0.00000          -0.072333           -1.96828
    163       0.00000          -0.067618           -1.83999
    164       0.00000          -0.066532           -1.81042
    165       0.00000          -0.065483           -1.78190
    166       0.00000          -0.058159           -1.58258
    167       0.00000          -0.053890           -1.46643
    168       0.00000          -0.049547           -1.34825
    169       0.00000          -0.047996           -1.30603
    170       0.00000          -0.046963           -1.27792
    171       0.00000          -0.045875           -1.24833
    172       0.00000          -0.043572           -1.18567
    173       0.00000          -0.040800           -1.11021
    174       0.00000          -0.036438           -0.99152
    175       0.00000          -0.035320           -0.96111
    176       0.00000          -0.032040           -0.87186
    177       0.00000          -0.030867           -0.83992
    178       0.00000          -0.027630           -0.75186
    179       0.00000          -0.023999           -0.65304
    180       0.00000          -0.021352           -0.58101
    181       0.00000          -0.015604           -0.42461
    182       0.00000          -0.012855           -0.34979
    183       0.00000          -0.009978           -0.27153
    184       0.00000          -0.007215           -0.19632
    185       0.00000          -0.006743           -0.18348
    186       0.00000          -0.004039           -0.10992
    187       0.00000          -0.003292           -0.08958
    188       0.00000          -0.002391           -0.06505
    189       0.00000           0.001007            0.02741
    190       0.00000           0.003842            0.10453
    191       0.00000           0.005588            0.15206
    192       0.00000           0.006263            0.17043
    193       0.00000           0.007956            0.21649
    194       0.00000           0.011658            0.31723
    195       0.00000           0.013805            0.37564
    196       0.00000           0.014347            0.39041
    197       0.00000           0.015258            0.41520
    198       0.00000           0.019425            0.52858
    199       0.00000           0.021610            0.58804
    200       0.00000           0.022816            0.62085
    201       0.00000           0.024942            0.67869
    202       0.00000           0.026409            0.71862
    203       0.00000           0.027347            0.74416
    204       0.00000           0.028855            0.78519
    205       0.00000           0.029614            0.80584
    206       0.00000           0.034245            0.93187
    207       0.00000           0.036151            0.98371
    208       0.00000           0.039408            1.07233
    209       0.00000           0.040289            1.09631
    210       0.00000           0.043045            1.17130
    211       0.00000           0.044334            1.20638
    212       0.00000           0.047451            1.29121
    213       0.00000           0.048293            1.31413
    214       0.00000           0.048895            1.33050
    215       0.00000           0.053810            1.46424
    216       0.00000           0.055873            1.52038
    217       0.00000           0.057871            1.57475
    218       0.00000           0.058931            1.60359
    219       0.00000           0.061440            1.67185
    220       0.00000           0.062322            1.69587
    221       0.00000           0.066027            1.79668
    222       0.00000           0.069021            1.87815
    223       0.00000           0.070051            1.90619
    224       0.00000           0.072013            1.95958
    225       0.00000           0.073061            1.98810
    226       0.00000           0.076964            2.09430
    227       0.00000           0.077391            2.10592
    228       0.00000           0.081481            2.21722
    229       0.00000           0.082853            2.25453
    230       0.00000           0.084370            2.29581
    231       0.00000           0.085780            2.33419
    232       0.00000           0.087530            2.38180
    233       0.00000           0.092628            2.52054
    234       0.00000           0.095104            2.58791
    235       0.00000           0.096938            2.63781
    236       0.00000           0.097676            2.65789
    237       0.00000           0.098963            2.69291
    238       0.00000           0.101128            2.75183
    239       0.00000           0.101679            2.76683
    240       0.00000           0.103915            2.82768
    241       0.00000           0.106137            2.88812
    242       0.00000           0.108159            2.94317
    243       0.00000           0.111633            3.03769
    244       0.00000           0.114025            3.10277
    245       0.00000           0.119454            3.25050
    246       0.00000           0.120854            3.28860
    247       0.00000           0.122321            3.32853
    248       0.00000           0.124305            3.38251
    249       0.00000           0.126250            3.43545
    250       0.00000           0.128380            3.49341
    251       0.00000           0.129992            3.53725
    252       0.00000           0.133492            3.63249
    253       0.00000           0.134009            3.64657
    254       0.00000           0.135973            3.70001
    255       0.00000           0.138647            3.77279
    256       0.00000           0.141666            3.85493
    257       0.00000           0.142179            3.86889
    258       0.00000           0.144259            3.92549
    259       0.00000           0.145957            3.97170
    260       0.00000           0.147130            4.00362
    261       0.00000           0.148573            4.04287
    262       0.00000           0.150054            4.08317
    263       0.00000           0.152614            4.15285
    264       0.00000           0.154599            4.20686
    265       0.00000           0.156410            4.25614
    266       0.00000           0.157461            4.28473
    267       0.00000           0.158607            4.31591
    268       0.00000           0.163329            4.44441
    269       0.00000           0.164039            4.46372
    270       0.00000           0.166822            4.53945
    271       0.00000           0.170229            4.63216
    272       0.00000           0.171004            4.65327
    273       0.00000           0.173071            4.70950
    274       0.00000           0.173653            4.72533
    275       0.00000           0.177132            4.82001
    276       0.00000           0.177256            4.82339
    277       0.00000           0.179000            4.87084
    278       0.00000           0.182487            4.96571
    279       0.00000           0.185134            5.03774
    280       0.00000           0.185869            5.05776
    281       0.00000           0.189028            5.14371
    282       0.00000           0.189843            5.16590
    283       0.00000           0.192070            5.22649
    284       0.00000           0.192259            5.23163
    285       0.00000           0.194766            5.29985
    286       0.00000           0.195290            5.31412
    287       0.00000           0.197392            5.37130
    288       0.00000           0.198550            5.40281
    289       0.00000           0.201094            5.47205
    290       0.00000           0.203161            5.52828
    291       0.00000           0.205359            5.58810
    292       0.00000           0.209934            5.71260
    293       0.00000           0.212971            5.79523
    294       0.00000           0.214213            5.82903
    295       0.00000           0.215391            5.86109
    296       0.00000           0.217147            5.90888
    297       0.00000           0.217563            5.92019
    298       0.00000           0.223374            6.07831
    299       0.00000           0.226595            6.16597
    300       0.00000           0.230676            6.27701
    301       0.00000           0.231111            6.28886
    302       0.00000           0.234067            6.36930
    303       0.00000           0.236389            6.43248
    304       0.00000           0.238145            6.48027
    305       0.00000           0.238557            6.49146
    306       0.00000           0.242017            6.58561
    307       0.00000           0.244335            6.64869
    308       0.00000           0.245856            6.69008
    309       0.00000           0.251613            6.84674
    310       0.00000           0.252705            6.87646
    311       0.00000           0.254749            6.93208
    312       0.00000           0.258704            7.03970
    313       0.00000           0.259492            7.06113
    314       0.00000           0.263776            7.17770
    315       0.00000           0.264624            7.20079
    316       0.00000           0.267855            7.28871
    317       0.00000           0.270005            7.34721
    318       0.00000           0.272669            7.41970
    319       0.00000           0.274084            7.45822
    320       0.00000           0.275656            7.50099

  Highest occupied state (VBM) at     -9.20799237 eV
  | Occupation number:      2.00000000

  Lowest unoccupied state (CBM) at    -7.56824021 eV
  | Occupation number:      0.00000000

  Overall HOMO-LUMO gap:      1.63975216 eV.
  Calculating total energy contributions from superposition of free atom densities.

  Total energy components:
  | Sum of eigenvalues            :        -984.52653222 Ha      -26790.33001860 eV
  | XC energy correction          :        -234.39073577 Ha       -6378.09643419 eV
  | XC potential correction       :         301.11296135 Ha        8193.70056936 eV
  | Free-atom electrostatic energy:        -704.61893205 Ha      -19173.65668610 eV
  | Hartree energy correction     :           0.00000000 Ha           0.00000000 eV
  | Entropy correction            :           0.00000000 Ha           0.00000000 eV
  | ---------------------------
  | Total energy                  :       -1622.42323868 Ha      -44148.38256953 eV
  | Total energy, T -> 0          :       -1622.42323868 Ha      -44148.38256953 eV  <-- do not rely on this value for anything but (periodic) metals
  | Electronic free energy        :       -1622.42323868 Ha      -44148.38256953 eV

  Derived energy quantities:
  | Kinetic energy                :        1605.49434298 Ha       43687.72387953 eV
  | Electrostatic energy          :       -2993.52684590 Ha      -81458.01001487 eV
  | Energy correction for multipole
  | error in Hartree potential    :           0.00000000 Ha           0.00000000 eV
  | Sum of eigenvalues per atom                           :        -352.50434235 eV
  | Total energy (T->0) per atom                          :        -580.89977065 eV  <-- do not rely on this value for anything but (periodic) metals
  | Electronic free energy per atom                       :        -580.89977065 eV
  Initialize hartree_potential_storage
  Max. number of atoms included in rho_multipole:           76

  End scf initialization - timings             :  max(cpu_time)    wall_clock(cpu1)
  | Time for scf. initialization               :       18.400 s          18.454 s
  | Boundary condition initialization          :        0.001 s           0.004 s
  | Integration                                :       14.149 s          14.154 s
  | Solution of K.-S. eqns.                    :        0.486 s           0.503 s
  | Grid partitioning                          :        1.530 s           1.534 s
  | Preloading free-atom quantities on grid    :        0.014 s           0.016 s
  | Free-atom superposition energy             :        0.155 s           0.156 s
  | Total energy evaluation                    :        0.001 s           0.003 s

  Partial memory accounting:
  | Current value for overall tracked memory usage on task 0  :           9.222 MB
  | Peak value for overall tracked memory usage on task 0     :          46.505 MB after allocating zora_vector2
  | Largest tracked array allocation on task 0 so far         :          14.558 MB  when allocating hamiltonian_shell
  Note:  These values currently only include a subset of arrays which are explicitly tracked.
  The "true" memory usage will be greater.
------------------------------------------------------------

------------------------------------------------------------
          Begin self-consistency iteration #    1

  Date     :  20210620, Time     :  172041.113
------------------------------------------------------------
  Evaluating new KS density.
  Integration grid: deviation in total charge (<rho> - N_e) =   2.842171E-13
  Pulay mixing of updated and previous charge densities.

  Evaluating partitioned Hartree potential by multipole expansion.
  | Analytical far-field extrapolation by fixed multipoles:
  | Hartree multipole sum: apparent total charge =  -0.688767E-04
  Summing up the Hartree potential with load balancing.
  Time summed over all CPUs for potential: real work       55.662 s, elapsed      107.058 s
  | RMS charge density error from multipole expansion :   0.160063E-01

  Start compute_balanced_batch_distribution
  Done load balancing, time needed:      0.011 s
  Integrating Hamiltonian matrix: batch-based integration with load balancing
  Time summed over all CPUs for integration: real work      345.548 s, elapsed      383.223 s
  Time get_set_full_local_matrix_scalapack:     0.035083 s
  Start compute_balanced_batch_distribution
  Done load balancing, time needed:      0.011 s

  Updating Kohn-Sham eigenvalues and eigenvectors using ELSI and the ELPA eigensolver.
  Finished transformation to standard eigenproblem
  | Time :     0.055 s
  Starting ELPA eigensolver
  Finished solving standard eigenproblem
  | Time :     0.189 s
  Finished back-transformation of eigenvectors
  | Time :     0.008 s

  Obtaining occupation numbers and chemical potential using ELSI.
  | Chemical potential (Fermi level):    -4.63123633 eV
  Writing Kohn-Sham eigenvalues.

  State    Occupation    Eigenvalue [Ha]    Eigenvalue [eV]
      1       2.00000          -9.994016         -271.95101
      2       2.00000          -9.993058         -271.92494
      3       2.00000          -9.984643         -271.69596
      4       2.00000          -9.982321         -271.63278
      5       2.00000          -9.978486         -271.52841
      6       2.00000          -9.978299         -271.52333
      7       2.00000          -9.973510         -271.39303
      8       2.00000          -9.972971         -271.37834
      9       2.00000          -9.970452         -271.30980
     10       2.00000          -9.970123         -271.30086
     11       2.00000          -9.964100         -271.13696
     12       2.00000          -9.964069         -271.13611
     13       2.00000          -9.963959         -271.13311
     14       2.00000          -9.962152         -271.08395
     15       2.00000          -9.960350         -271.03493
     16       2.00000          -9.959766         -271.01903
     17       2.00000          -9.958644         -270.98849
     18       2.00000          -9.958116         -270.97413
     19       2.00000          -9.956649         -270.93420
     20       2.00000          -9.954833         -270.88479
     21       2.00000          -9.945542         -270.63197
     22       2.00000          -9.945512         -270.63115
     23       2.00000          -9.944500         -270.60360
     24       2.00000          -9.944155         -270.59424
     25       2.00000          -9.943859         -270.58618
     26       2.00000          -9.943124         -270.56618
     27       2.00000          -9.941708         -270.52763
     28       2.00000          -9.941199         -270.51378
     29       2.00000          -9.940965         -270.50742
     30       2.00000          -9.940937         -270.50665
     31       2.00000          -9.940794         -270.50276
     32       2.00000          -9.937265         -270.40674
     33       2.00000          -9.930006         -270.20920
     34       2.00000          -9.927805         -270.14931
     35       2.00000          -9.926719         -270.11976
     36       2.00000          -9.926082         -270.10245
     37       2.00000          -9.908002         -269.61045
     38       2.00000          -9.908002         -269.61045
     39       2.00000          -9.907063         -269.58489
     40       2.00000          -9.905493         -269.54217
     41       2.00000          -9.900115         -269.39584
     42       2.00000          -9.899853         -269.38872
     43       2.00000          -0.879876          -23.94265
     44       2.00000          -0.860251          -23.40863
     45       2.00000          -0.845968          -23.01997
     46       2.00000          -0.841620          -22.90164
     47       2.00000          -0.824366          -22.43215
     48       2.00000          -0.814058          -22.15164
     49       2.00000          -0.807763          -21.98034
     50       2.00000          -0.786130          -21.39167
     51       2.00000          -0.770200          -20.95820
     52       2.00000          -0.765609          -20.83328
     53       2.00000          -0.759951          -20.67931
     54       2.00000          -0.759423          -20.66496
     55       2.00000          -0.745236          -20.27892
     56       2.00000          -0.736785          -20.04894
     57       2.00000          -0.729001          -19.83713
     58       2.00000          -0.726971          -19.78188
     59       2.00000          -0.722500          -19.66022
     60       2.00000          -0.690599          -18.79214
[...]
    150       0.00000          -0.035392           -0.96307
    151       0.00000          -0.033114           -0.90107
    152       0.00000          -0.031413           -0.85479
    153       0.00000          -0.016094           -0.43795
    154       0.00000          -0.012162           -0.33096
    155       0.00000          -0.006711           -0.18262
    156       0.00000          -0.000175           -0.00476
    157       0.00000           0.003307            0.08998
    158       0.00000           0.005444            0.14814
    159       0.00000           0.006468            0.17601
    160       0.00000           0.011268            0.30662
    161       0.00000           0.013434            0.36556
    162       0.00000           0.014772            0.40196
    163       0.00000           0.018909            0.51453
    164       0.00000           0.024211            0.65881
    165       0.00000           0.028762            0.78266
    166       0.00000           0.029654            0.80694
    167       0.00000           0.032550            0.88573
    168       0.00000           0.034730            0.94505
    169       0.00000           0.035089            0.95483
    170       0.00000           0.042079            1.14503
    171       0.00000           0.044759            1.21796
    172       0.00000           0.048105            1.30900
    173       0.00000           0.050587            1.37655
    174       0.00000           0.052722            1.43464
    175       0.00000           0.054424            1.48096
    176       0.00000           0.055700            1.51568
    177       0.00000           0.056585            1.53976
    178       0.00000           0.061047            1.66117
    179       0.00000           0.064290            1.74942
    180       0.00000           0.064899            1.76599
    181       0.00000           0.066535            1.81051
    182       0.00000           0.069513            1.89154
    183       0.00000           0.073040            1.98752
    184       0.00000           0.075459            2.05335
    185       0.00000           0.080843            2.19985
    186       0.00000           0.081514            2.21810
    187       0.00000           0.089013            2.42217
    188       0.00000           0.093674            2.54899
    189       0.00000           0.095225            2.59120
    190       0.00000           0.102464            2.78818
    191       0.00000           0.103785            2.82414
    192       0.00000           0.107789            2.93308
    193       0.00000           0.109170            2.97067
    194       0.00000           0.111071            3.02239
    195       0.00000           0.112400            3.05857
    196       0.00000           0.115004            3.12941
    197       0.00000           0.117094            3.18629
    198       0.00000           0.123633            3.36423
    199       0.00000           0.124390            3.38483
    200       0.00000           0.127631            3.47303
    201       0.00000           0.128791            3.50459
    202       0.00000           0.132839            3.61472
    203       0.00000           0.133277            3.62666
    204       0.00000           0.136307            3.70911
    205       0.00000           0.139618            3.79921
    206       0.00000           0.140249            3.81637
    207       0.00000           0.144867            3.94204
    208       0.00000           0.146068            3.97472
    209       0.00000           0.146679            3.99133
    210       0.00000           0.150664            4.09977
    211       0.00000           0.155649            4.23543
    212       0.00000           0.156443            4.25702
    213       0.00000           0.159245            4.33329
    214       0.00000           0.160558            4.36902
    215       0.00000           0.161877            4.40490
    216       0.00000           0.164066            4.46446
    217       0.00000           0.166917            4.54203
    218       0.00000           0.170437            4.63781
    219       0.00000           0.172735            4.70037
    220       0.00000           0.174277            4.74232
    221       0.00000           0.175839            4.78482
    222       0.00000           0.177763            4.83718
    223       0.00000           0.179616            4.88760
    224       0.00000           0.182678            4.97092
    225       0.00000           0.186030            5.06214
    226       0.00000           0.187142            5.09239
    227       0.00000           0.188419            5.12713
    228       0.00000           0.191254            5.20427
    229       0.00000           0.194450            5.29126
    230       0.00000           0.195779            5.32741
    231       0.00000           0.197557            5.37579
    232       0.00000           0.199842            5.43798
    233       0.00000           0.203680            5.54241
    234       0.00000           0.204051            5.55250
    235       0.00000           0.211035            5.74256
    236       0.00000           0.211454            5.75394
    237       0.00000           0.212706            5.78802
    238       0.00000           0.213768            5.81693
    239       0.00000           0.217088            5.90725
    240       0.00000           0.217867            5.92846
    241       0.00000           0.220567            6.00194
    242       0.00000           0.222753            6.06141
    243       0.00000           0.224839            6.11819
    244       0.00000           0.225434            6.13436
    245       0.00000           0.227396            6.18776
    246       0.00000           0.228762            6.22492
    247       0.00000           0.231094            6.28840
    248       0.00000           0.232578            6.32877
    249       0.00000           0.233869            6.36391
    250       0.00000           0.237374            6.45928
    251       0.00000           0.238715            6.49577
    252       0.00000           0.239990            6.53047
    253       0.00000           0.240139            6.53452
    254       0.00000           0.243182            6.61732
    255       0.00000           0.245416            6.67811
    256       0.00000           0.246723            6.71367
    257       0.00000           0.251192            6.83528
    258       0.00000           0.253271            6.89186
    259       0.00000           0.253819            6.90677
    260       0.00000           0.258173            7.02525
    261       0.00000           0.259292            7.05570
    262       0.00000           0.260698            7.09395
    263       0.00000           0.261666            7.12030
    264       0.00000           0.265049            7.21234
    265       0.00000           0.265718            7.23055
    266       0.00000           0.266275            7.24571
    267       0.00000           0.270873            7.37084
    268       0.00000           0.273422            7.44019
    269       0.00000           0.275103            7.48594
    270       0.00000           0.275945            7.50885
    271       0.00000           0.276537            7.52495
    272       0.00000           0.277941            7.56315
    273       0.00000           0.278640            7.58219
    274       0.00000           0.283119            7.70406
    275       0.00000           0.287028            7.81042
    276       0.00000           0.290503            7.90499
    277       0.00000           0.292665            7.96382
    278       0.00000           0.295000            8.02735
    279       0.00000           0.297975            8.10831
    280       0.00000           0.298677            8.12741
    281       0.00000           0.302104            8.22068
    282       0.00000           0.303714            8.26448
    283       0.00000           0.305033            8.30038
    284       0.00000           0.306070            8.32859
    285       0.00000           0.310326            8.44441
    286       0.00000           0.311754            8.48325
    287       0.00000           0.313690            8.53595
    288       0.00000           0.314714            8.56382
    289       0.00000           0.318778            8.67440
    290       0.00000           0.320187            8.71274
    291       0.00000           0.321864            8.75836
    292       0.00000           0.324540            8.83119
    293       0.00000           0.326926            8.89612
    294       0.00000           0.331309            9.01538
    295       0.00000           0.332771            9.05517
    296       0.00000           0.334896            9.11299
    297       0.00000           0.335937            9.14130
    298       0.00000           0.337540            9.18493
    299       0.00000           0.339492            9.23806
    300       0.00000           0.343405            9.34452
    301       0.00000           0.344164            9.36519
    302       0.00000           0.347410            9.45351
    303       0.00000           0.348608            9.48612
    304       0.00000           0.350820            9.54630
    305       0.00000           0.352322            9.58718
    306       0.00000           0.354353            9.64244
    307       0.00000           0.358411            9.75287
    308       0.00000           0.359667            9.78703
    309       0.00000           0.360944            9.82178
    310       0.00000           0.362690            9.86929
    311       0.00000           0.365779            9.95335
    312       0.00000           0.367867           10.01016
    313       0.00000           0.371178           10.10026
    314       0.00000           0.377552           10.27372
    315       0.00000           0.378019           10.28642
    316       0.00000           0.381452           10.37983
    317       0.00000           0.382848           10.41782
    318       0.00000           0.385387           10.48690
    319       0.00000           0.388410           10.56918
    320       0.00000           0.392536           10.68144

  Highest occupied state (VBM) at     -4.46137399 eV
  | Occupation number:      2.00000000

  Lowest unoccupied state (CBM) at    -2.90977133 eV
  | Occupation number:      0.00000000

  Overall HOMO-LUMO gap:      1.55160266 eV.

  Total energy components:
  | Sum of eigenvalues            :        -921.15689579 Ha      -25065.95447624 eV
  | XC energy correction          :        -239.17410260 Ha       -6508.25846837 eV
  | XC potential correction       :         307.27571943 Ha        8361.39774882 eV
  | Free-atom electrostatic energy:        -704.61893205 Ha      -19173.65668610 eV
  | Hartree energy correction     :         -62.59335598 Ha       -1703.25187660 eV
  | Entropy correction            :           0.00000000 Ha           0.00000000 eV
  | ---------------------------
  | Total energy                  :       -1620.26756700 Ha      -44089.72375848 eV
  | Total energy, T -> 0          :       -1620.26756700 Ha      -44089.72375848 eV  <-- do not rely on this value for anything but (periodic) metals
  | Electronic free energy        :       -1620.26756700 Ha      -44089.72375848 eV

  Derived energy quantities:
  | Kinetic energy                :        1616.09379345 Ha       43976.14960155 eV
  | Electrostatic energy          :       -2997.18725784 Ha      -81557.61489166 eV
  | Energy correction for multipole
  | error in Hartree potential    :          -0.20553720 Ha          -5.59295171 eV
  | Sum of eigenvalues per atom                           :        -329.81519048 eV
  | Total energy (T->0) per atom                          :        -580.12794419 eV  <-- do not rely on this value for anything but (periodic) metals
  | Electronic free energy per atom                       :        -580.12794419 eV
  End evaluation of scaled ZORA corrections.
  | Time for scaled ZORA corrections           :       13.382 s          13.394 s
------------------------------------------------------------

  Energy and forces in a compact form:
  | Total energy uncorrected      :         -0.440897237584799E+05 eV
  | Total energy corrected        :         -0.440897237584799E+05 eV  <-- do not rely on this value for anything but (periodic) metals
  | Electronic free energy        :         -0.440897237584799E+05 eV

  ------------------------------------ 
  Start decomposition of the XC Energy 
  ------------------------------------ 
  X and C from original XC functional choice 
  Hartree-Fock Energy :          0.000000000 Ha              0.000000000 eV
  X Energy            :       -229.605402682 Ha          -6247.880895647 eV
  C Energy            :         -9.568699921 Ha           -260.377572721 eV
  Total XC Energy     :       -239.174102603 Ha          -6508.258468369 eV
  ------------------------------------ 
  LDA X and C from self-consistent density 
  X Energy LDA        :       -207.996180901 Ha          -5659.864053038 eV
  C Energy LDA        :        -18.352688308 Ha           -499.402058150 eV
  ------------------------------------ 
  End decomposition of the XC Energy 
  ------------------------------------ 

------------------------------------------------------------

------------------------------------------------------------------------------
  Final output of selected total energy values:

  The following output summarizes some interesting total energy values
  at the end of a run (AFTER all relaxation, molecular dynamics, etc.).

  | Total energy of the DFT / Hartree-Fock s.c.f. calculation      :         -44089.723758480 eV
  | Final zero-broadening corrected energy (caution - metals only) :         -44089.723758480 eV
  | For reference only, the value of 1 Hartree used in FHI-aims is :             27.211384500 eV

  Before relying on these values, please be sure to understand exactly which
  total energy value is referred to by a given number. Different objects may
  all carry the same name 'total energy'. Definitions:

  Total energy of the DFT / Hartree-Fock s.c.f. calculation:
  | Note that this energy does not include ANY quantities calculated after the
  | s.c.f. cycle, in particular not ANY RPA, MP2, etc. many-body perturbation terms.
  | Scalar relativistic effects have been included in the 'scaled ZORA' approximation.

  Final zero-broadening corrected energy:
  | For metallic systems only, a broadening of the occupation numbers at the Fermi
  | level can be extrapolated back to zero broadening by an electron-gas inspired
  | formula. For all systems that are not real metals, this value can be
  | meaningless and should be avoided.

------------------------------------------------------------------------------
  Methods described in the following list of references were used in this FHI-aims run.
  If you publish the results, please make sure to cite these reference if they apply.
  FHI-aims is an academic code, and for our developers (often, Ph.D. students
  and postdocs), scientific credit in the community is essential.
  Thank you for helping us!

  For any use of FHI-aims, please cite:

    Volker Blum, Ralf Gehrke, Felix Hanke, Paula Havu, Ville Havu,
    Xinguo Ren, Karsten Reuter, and Matthias Scheffler
    'Ab initio molecular simulations with numeric atom-centered orbitals'
    Computer Physics Communications 180, 2175-2196 (2009)
    http://dx.doi.org/10.1016/j.cpc.2009.06.022


  The scalable eigensolver library ELPA was used in your run.
  ELPA is essential especially for large systems on hundreds or thousands of CPUs.
  For ELPA, please cite:

    Andreas Marek, Volker Blum, Rainer Johanni, Ville Havu, Bruno Lang,
    Thomas Auckenthaler, Alexander Heinecke, Hans-Joachim Bungartz, and Hermann Lederer,
    'The ELPA Library - Scalable Parallel Eigenvalue Solutions
    for Electronic Structure Theory and Computational Science'
    The Journal of Physics: Condensed Matter 26, 213201 (2014).
    http://dx.doi.org/10.1088/0953-8984/26/21/213201


  The ELSI infrastructure was used in your run to solve the Kohn-Sham electronic structure.
  Please check out http://elsi-interchange.org to learn more.
  If scalability is important for your project, please acknowledge ELSI by citing:

    V. W-z. Yu, F. Corsetti, A. Garcia, W. P. Huhn, M. Jacquelin, W. Jia,
    B. Lange, L. Lin, J. Lu, W. Mi, A. Seifitokaldani, A. Vazquez-Mayagoitia,
    C. Yang, H. Yang, and V. Blum
    'ELSI: A unified software interface for Kohn-Sham electronic structure solvers'
    Computer Physics Communications 222, 267-285 (2018).
    http://dx.doi.org/10.1016/j.cpc.2017.09.007


  For the real-space grid partitioning and parallelization used in this calculation, please cite:

    Ville Havu, Volker Blum, Paula Havu, and Matthias Scheffler,
    'Efficient O(N) integration for all-electron electronic structure calculation'
    'using numerically tabulated basis functions'
    Journal of Computational Physics 228, 8367-8379 (2009).
    http://dx.doi.org/10.1016/j.jcp.2009.08.008

  Of course, there are many other important community references, e.g., those cited in the
  above references. Our list is limited to references that describe implementations in the
  FHI-aims code. The reason is purely practical (length of this list) - please credit others as well.

------------------------------------------------------------
          Leaving FHI-aims.
          Date     :  20210620, Time     :  172426.484

          Computational steps:
          | Number of self-consistency cycles          :           19
          | Number of SCF (re)initializations          :            1

          Detailed time accounting                     :  max(cpu_time)    wall_clock(cpu1)
          | Total time                                 :      244.004 s         244.212 s
          | Preparation time                           :        0.195 s           0.180 s
          | Boundary condition initalization           :        0.001 s           0.004 s
          | Grid partitioning                          :        1.530 s           1.534 s
          | Preloading free-atom quantities on grid    :        0.014 s           0.016 s
          | Free-atom superposition energy             :        0.155 s           0.156 s
          | Total time for integrations                :      137.550 s         137.556 s
          | Total time for solution of K.-S. equations :        6.912 s           6.935 s
          | Total time for density update              :       58.575 s          58.507 s
          | Total time for mixing                      :        0.243 s           0.244 s
          | Total time for Hartree multipole update    :        0.278 s           0.288 s
          | Total time for Hartree multipole sum       :       22.808 s          22.813 s
          | Total time for total energy evaluation     :        0.008 s           0.031 s
          | Total time for scaled ZORA corrections     :       13.382 s          13.394 s

          Partial memory accounting:
          | Residual value for overall tracked memory usage across tasks :     0.000000 MB (should be 0.000000 MB)
          | Peak values for overall tracked memory usage (after allocating zora_vector2):
          |   Minimum:       44.587 MB (on task 35)
          |   Maximum:       59.879 MB (on task 13)
          |   Average:       51.943 MB
          | Largest tracked array allocation (hamiltonian_shell):
          |   Minimum:       14.558 MB (on task  1)
          |   Maximum:       14.558 MB (on task  1)
          |   Average:       14.558 MB
          Note:  These values currently only include a subset of arrays which are explicitly tracked.
          The "true" memory usage will be greater.

          Have a nice day.
------------------------------------------------------------
