  MPI-parallelism will be employed.
------------------------------------------------------------
          Invoking FHI-aims ...
          Version 180607
          Git rev. (modified): 6724847 Fix JSON memory corruption in scf_solver
          Compiled on 2018/06/27 at 16:00:31 on host coe.psc.edu.

          When using FHI-aims, please cite the following reference:

          Volker Blum, Ralf Gehrke, Felix Hanke, Paula Havu,
          Ville Havu, Xinguo Ren, Karsten Reuter, and Matthias Scheffler,
          'Ab Initio Molecular Simulations with Numeric Atom-Centered Orbitals',
          Computer Physics Communications 180, 2175-2196 (2009)

          For any questions about FHI-aims, please visit the aimsclub website
          with its forums and wiki. Contributions to both the forums and the
          wiki are warmly encouraged - they are for you, and everyone is welcome there.

------------------------------------------------------------



  Date     :  20210620, Time     :  180102.017
  Time zero on CPU 1             :   0.247900000000000E+00  s.
  Internal wall clock time zero  :           393444062.017  s.

  FHI-aims created a unique identifier for this run for later identification
  aims_uuid : D8EE6930-8BAF-415E-A765-C2003ED2EB8F

  Using       56 parallel tasks.
  Task        0 on host d024 reporting.
  Task        1 on host d024 reporting.
  Task        2 on host d024 reporting.
  Task        3 on host d024 reporting.
  Task        4 on host d024 reporting.
  Task        5 on host d024 reporting.
  Task        6 on host d024 reporting.
  Task        7 on host d024 reporting.
  Task        8 on host d024 reporting.
  Task        9 on host d024 reporting.
  Task       10 on host d024 reporting.
  Task       11 on host d024 reporting.
  Task       12 on host d024 reporting.
  Task       13 on host d024 reporting.
  Task       14 on host d024 reporting.
  Task       15 on host d024 reporting.
  Task       16 on host d024 reporting.
  Task       17 on host d024 reporting.
  Task       18 on host d024 reporting.
  Task       19 on host d024 reporting.
  Task       20 on host d024 reporting.
  Task       21 on host d024 reporting.
  Task       22 on host d024 reporting.
  Task       23 on host d024 reporting.
  Task       24 on host d024 reporting.
  Task       25 on host d024 reporting.
  Task       26 on host d024 reporting.
  Task       27 on host d024 reporting.
  Task       28 on host d024 reporting.
  Task       29 on host d024 reporting.
  Task       30 on host d024 reporting.
  Task       31 on host d024 reporting.
  Task       32 on host d024 reporting.
  Task       33 on host d024 reporting.
  Task       34 on host d024 reporting.
  Task       35 on host d024 reporting.
  Task       36 on host d024 reporting.
  Task       37 on host d024 reporting.
  Task       38 on host d024 reporting.
  Task       39 on host d024 reporting.
  Task       40 on host d024 reporting.
  Task       41 on host d024 reporting.
  Task       42 on host d024 reporting.
  Task       43 on host d024 reporting.
  Task       44 on host d024 reporting.
  Task       45 on host d024 reporting.
  Task       46 on host d024 reporting.
  Task       47 on host d024 reporting.
  Task       48 on host d024 reporting.
  Task       49 on host d024 reporting.
  Task       50 on host d024 reporting.
  Task       51 on host d024 reporting.
  Task       52 on host d024 reporting.
  Task       53 on host d024 reporting.
  Task       54 on host d024 reporting.
  Task       55 on host d024 reporting.

  Performing system and environment tests:
  *** Environment variable OMP_NUM_THREADS is not set
  *** For performance reasons you might want to set it to 1
  | Stacksize not measured: no C compiler
  | Checking for scalapack...
  | Testing pdtran()...
  | All pdtran() tests passed.

  Obtaining array dimensions for all initial allocations:
  
  -----------------------------------------------------------------------
  Parsing control.in (first pass over file, find array dimensions only).
  The contents of control.in will be repeated verbatim below
  unless switched off by setting 'verbatim_writeout .false.' .
  in the first line of control.in .
  -----------------------------------------------------------------------
  
  #===============================================================================
  # FHI-aims file: ./Runs/es/control.in
  # Created using the Atomic Simulation Environment (ASE)
  # Mon Jan 13 16:04:38 2020
  #===============================================================================
  xc                                 pbe
  relativistic                       zora scalar 1e-12
  occupation_type                    gaussian 0.0001
  load_balancing                     .true.
  KS_method                          scalapack_fast
  mixer                              pulay
  n_max_pulay                        5
  charge_mix_param                   0.4
  sc_accuracy_etot                   1e-6
  sc_accuracy_eev                    1e-4
  sc_accuracy_rho                    1e-6
  sc_iter_limit                      100
  prodbas_threshold                  1e-4
  basis_threshold                    1e-5
  override_illconditioning           .true.
  use_logsbt                         .true.
  spin                               none
  charge                             0
  #===============================================================================
  
  ################################################################################
  #
  #  FHI-aims code project
  # Volker Blum, Fritz Haber Institute Berlin, 2009
  #
  #  Suggested "tight" defaults for H atom (to be pasted into control.in file)
  #
  ################################################################################
    species        H
  #     global species definitions
      nucleus             1
      mass                1.00794
  #
      l_hartree           6
  #
      cut_pot             4.0  2.0  1.0
      basis_dep_cutoff    1e-4
  #
      radial_base         24 7.0
      radial_multiplier   2
      angular_grids       specified
        division   0.1930   50
        division   0.3175  110
        division   0.4293  194
        division   0.5066  302
        division   0.5626  434
  #      division   0.5922  590
  #      division   0.6227  974
  #      division   0.6868 1202
  #      outer_grid  770
        outer_grid  434
  ################################################################################
  #
  #  Definition of "minimal" basis
  #
  ################################################################################
  #     valence basis states
      valence      1  s   1.
  #     ion occupancy
      ion_occ      1  s   0.5
  ################################################################################
  #
  #  Suggested additional basis functions. For production calculations,
  #  uncomment them one after another (the most important basis functions are
  #  listed first).
  #
  #  Basis constructed for dimers: 0.5 A, 0.7 A, 1.0 A, 1.5 A, 2.5 A
  #
  ################################################################################
  #  "First tier" - improvements: -1014.90 meV to -62.69 meV
       hydro 2 s 2.1
       hydro 2 p 3.5
  #  "Second tier" - improvements: -12.89 meV to -1.83 meV
       hydro 1 s 0.85
       hydro 2 p 3.7
       hydro 2 s 1.2
       hydro 3 d 7
  #  "Third tier" - improvements: -0.25 meV to -0.12 meV
  #     hydro 4 f 11.2
  #     hydro 3 p 4.8
  #     hydro 4 d 9
  #     hydro 3 s 3.2
  ################################################################################
  #
  # For methods that use the localized form of the "resolution of identity" for
  # the two-electron Coulomb operator (RI_method LVL), particularly Hartree-Fock and
  # hybrid density functional calculations, the highest accuracy can be obtained by
  # uncommenting the line beginning with "for_aux"  below, thus adding an extra g radial
  # function to the construction of the product basis set for the expansion.
  # See Ref. New J. Phys. 17, 093020 (2015) for more information, particularly Figs. 1 and 6.
  #
  ################################################################################
  #
  # for_aux hydro 5 g 6.0
  ################################################################################
  #
  #  FHI-aims code project
  # Volker Blum, Fritz Haber Institute Berlin, 2009
  #
  #  Suggested "tight" defaults for C atom (to be pasted into control.in file)
  #
  ################################################################################
    species        C
  #     global species definitions
      nucleus             6
      mass                12.0107
  #
      l_hartree           6
  #
      cut_pot             4.0  2.0  1.0
      basis_dep_cutoff    1e-4
  #
      radial_base         34 7.0
      radial_multiplier   2
      angular_grids specified
        division   0.2187   50
        division   0.4416  110
        division   0.6335  194
        division   0.7727  302
        division   0.8772  434
  #      division   0.9334  590
  #      division   0.9924  770
  #      division   1.0230  974
  #      division   1.5020 1202
  #     outer_grid  974
        outer_grid  434
  ################################################################################
  #
  #  Definition of "minimal" basis
  #
  ################################################################################
  #     valence basis states
      valence      2  s   2.
      valence      2  p   2.
  #     ion occupancy
      ion_occ      2  s   1.
      ion_occ      2  p   1.
  ################################################################################
  #
  #  Suggested additional basis functions. For production calculations,
  #  uncomment them one after another (the most important basis functions are
  #  listed first).
  #
  #  Constructed for dimers: 1.0 A, 1.25 A, 1.5 A, 2.0 A, 3.0 A
  #
  ################################################################################
  #  "First tier" - improvements: -1214.57 meV to -155.61 meV
       hydro 2 p 1.7
       hydro 3 d 6
       hydro 2 s 4.9
  #  "Second tier" - improvements: -67.75 meV to -5.23 meV
       hydro 4 f 9.8
       hydro 3 p 5.2
       hydro 3 s 4.3
       hydro 5 g 14.4
       hydro 3 d 6.2
  #  "Third tier" - improvements: -2.43 meV to -0.60 meV
  #     hydro 2 p 5.6
  #     hydro 2 s 1.4
  #     hydro 3 d 4.9
  #     hydro 4 f 11.2
  #  "Fourth tier" - improvements: -0.39 meV to -0.18 meV
  #     hydro 2 p 2.1
  #     hydro 5 g 16.4
  #     hydro 4 d 13.2
  #     hydro 3 s 13.6
  #     hydro 4 f 17.6
  #  Further basis functions - improvements: -0.08 meV and below
  #     hydro 3 s 2
  #     hydro 3 p 6
  #     hydro 4 d 20
  ################################################################################
  #
  # For methods that use the localized form of the "resolution of identity" for
  # the two-electron Coulomb operator (RI_method LVL), particularly Hartree-Fock and
  # hybrid density functional calculations, the highest accuracy can be obtained by
  # uncommenting the line beginning with "for_aux"  below, thus adding an extra g radial
  # function to the construction of the product basis set for the expansion.
  # See Ref. New J. Phys. 17, 093020 (2015) for more information, particularly Figs. 1 and 6.
  #
  ################################################################################
  #
  # for_aux hydro 5 g 6.0
  
  -----------------------------------------------------------------------
  Completed first pass over input file control.in .
  -----------------------------------------------------------------------
  
  
  -----------------------------------------------------------------------
  Parsing geometry.in (first pass over file, find array dimensions only).
  The contents of geometry.in will be repeated verbatim below
  unless switched off by setting 'verbatim_writeout .false.' .
  in the first line of geometry.in .
  -----------------------------------------------------------------------
  
  #=======================================================
  # FHI-aims file: geometry.in
  # Created using the Atomic Simulation Environment (ASE)
  # Sun Jun 20 15:47:02 2021
  #=======================================================
  atom 15.8815659999999994 21.4292340000000010 33.0041879999999992 H
  atom 15.0526839999999993 22.0079659999999997 33.3985429999999965 C
  atom 13.9966580000000000 22.4372569999999989 32.5282049999999998 C
  atom 15.0711460000000006 22.3667780000000000 34.7581080000000000 C
  atom 12.9283230000000007 23.1676110000000008 33.0282440000000008 C
  atom 14.0588130000000007 22.0593210000000006 31.1213389999999990 C
  atom 13.9597339999999992 23.1210489999999993 35.2365240000000028 C
  atom 15.8884589999999992 22.0544249999999984 35.3961309999999969 H
  atom 11.8858359999999994 23.5055790000000009 32.1254709999999974 C
  atom 12.9160149999999998 23.5202810000000007 34.4134870000000035 C
  atom 13.0169409999999992 22.4582359999999994 30.2320810000000009 C
  atom 15.1086849999999995 21.3227370000000001 30.5523759999999989 C
  atom 13.9338870000000004 23.5260019999999983 36.6582560000000015 C
  atom 11.0134450000000008 24.0547119999999985 32.4673900000000017 H
  atom 11.9750689999999995 23.1957109999999993 30.7956380000000003 C
  atom 11.8532189999999993 24.2621810000000018 34.9540689999999969 C
  atom 13.0415569999999992 22.1972470000000008 28.8346750000000007 C
  atom 15.1031469999999999 21.0208699999999986 29.1765930000000004 C
  atom 15.9422449999999998 20.9673729999999985 31.1502599999999994 H
  atom 12.8692449999999994 24.2825890000000015 37.1650520000000029 C
  atom 14.9369890000000005 23.1762920000000001 37.5448110000000028 C
  atom 11.1605869999999996 23.5140320000000003 30.1431550000000001 H
  atom 11.0255679999999998 24.5578229999999991 34.3167230000000032 H
  atom 11.8132180000000009 24.6230359999999990 36.2703879999999970 C
  atom 12.2426449999999996 22.5655029999999996 28.1942190000000004 H
  atom 14.1111219999999999 21.4793209999999988 28.3711249999999993 C
  atom 15.9253210000000003 20.4337550000000014 28.7702099999999987 H
  atom 12.7892430000000008 24.6992179999999983 38.5056969999999978 C
  atom 14.8748330000000006 23.5928879999999985 38.8895109999999988 C
  atom 15.7947950000000006 22.5832879999999996 37.2383009999999999 H
  atom 10.9635359999999995 25.1868610000000004 36.6519040000000018 H
  atom 14.1671849999999999 21.2577570000000016 27.3021230000000017 H
  atom 11.9378370000000000 25.2919470000000004 38.8359930000000020 H
  atom 13.8120379999999994 24.3389400000000009 39.3354909999999975 C
  atom 15.6741759999999992 23.3005470000000017 39.5699690000000004 H
  atom 13.7780059999999995 24.6385059999999996 40.3851670000000027 H
  
  -----------------------------------------------------------------------
  Completed first pass over input file geometry.in .
  -----------------------------------------------------------------------
  

  Basic array size parameters:
  | Number of species                 :        2
  | Number of atoms                   :       36
  | Max. basis fn. angular momentum   :        4
  | Max. atomic/ionic basis occupied n:        2
  | Max. number of basis fn. types    :        2
  | Max. radial fns per species/type  :        8
  | Max. logarithmic grid size        :     1277
  | Max. radial integration grid size :       69
  | Max. angular integration grid size:      434
  | Max. angular grid division number :        8
  | Radial grid for Hartree potential :     1277
  | Number of spin channels           :        1

------------------------------------------------------------
          Reading file control.in.
------------------------------------------------------------
  XC: Using PBE gradient-corrected functionals.
  Scalar relativistic treatment of kinetic energy: ZORA.
  Threshold value for ZORA:   0.100000E-11
  Occupation type: Gaussian broadening, width =   0.100000E-03 eV.
  Since 'load_balancing .true.' is present in control.in, automatically turning on 'use_local_index .true.'.
  Using load balancing for integrations.
  Kohn-Sham electronic structure solved by the ELSI library.
  Using pulay charge density mixing.
  Pulay mixing - number of memorized iterations:    5
  Charge density mixing - mixing parameter:     0.4000
  Convergence accuracy of total energy:  0.1000E-05
  Convergence accuracy of sum of eigenvalues:  0.1000E-03
  Convergence accuracy of self-consistent charge density:  0.1000E-05
  Maximum number of s.-c. iterations  :   100
  * Ignoring prodbas_threshold
  Threshold for basis singularities:  0.1000E-04
  override_illconditioning: Explicitly overriding any built-in checks for an ill-conditioned overlap matrix.
  *** WARNING: If you use this flag, you should really know what you are doing.
  *** DO NOT keep this flag set by default in all your control.in files.
  Using 1D integrations for auxiliary 2-center integrals.
  Spin treatment: No spin polarisation.
  Charge =   0.000000E+00: Neutral system requested explicitly.
 
  Reading configuration options for species H                   .
  | Found nuclear charge :   1.0000
  | Found atomic mass :    1.00794000000000      amu
  | Found l_max for Hartree potential  :   6
  | Found cutoff potl. onset [A], width [A], scale factor :    4.00000    2.00000    1.00000
  | Threshold for basis-dependent cutoff potential is   0.100000E-03
  | Found data for basic radial integration grid :    24 points, outermost radius =    7.000 A
  | Found multiplier for basic radial grid :   2
  | Found angular grid specification: user-specified.
  | Specified grid contains     6 separate shells.
  | Check grid settings after all constraints further below.
  | Found free-atom valence shell :  1 s   1.000
  | No ionic wave fns used. Skipping ion_occ.
  | Found hydrogenic basis function :  2 s   2.100
  | Found hydrogenic basis function :  2 p   3.500
  | Found hydrogenic basis function :  1 s   0.850
  | Found hydrogenic basis function :  2 p   3.700
  | Found hydrogenic basis function :  2 s   1.200
  | Found hydrogenic basis function :  3 d   7.000
  Species H                   : Missing cutoff potential type.
  Defaulting to exp(1/x)/(1-x)^2 type cutoff potential.
  Species H : No 'logarithmic' tag. Using default grid for free atom:
  | Default logarithmic grid data [bohr] : 0.1000E-03 0.1000E+03 0.1012E+01
  Species H : On-site basis accuracy parameter (for Gram-Schmidt orthonormalisation) not specified.
  Using default value basis_acc =  0.1000000E-03.
  Species H                   : Using default innermost maximum threshold i_radial=  2 for radial functions.
  Species H                   : Default cutoff onset for free atom density etc. : 0.40000000E+01 AA.
  Species H                   : Basic radial grid will be enhanced according to radial_multiplier =   2, to contain    49 grid points.
 
  Reading configuration options for species C                   .
  | Found nuclear charge :   6.0000
  | Found atomic mass :    12.0107000000000      amu
  | Found l_max for Hartree potential  :   6
  | Found cutoff potl. onset [A], width [A], scale factor :    4.00000    2.00000    1.00000
  | Threshold for basis-dependent cutoff potential is   0.100000E-03
  | Found data for basic radial integration grid :    34 points, outermost radius =    7.000 A
  | Found multiplier for basic radial grid :   2
  | Found angular grid specification: user-specified.
  | Specified grid contains     6 separate shells.
  | Check grid settings after all constraints further below.
  | Found free-atom valence shell :  2 s   2.000
  | Found free-atom valence shell :  2 p   2.000
  | No ionic wave fns used. Skipping ion_occ.
  | No ionic wave fns used. Skipping ion_occ.
  | Found hydrogenic basis function :  2 p   1.700
  | Found hydrogenic basis function :  3 d   6.000
  | Found hydrogenic basis function :  2 s   4.900
  | Found hydrogenic basis function :  4 f   9.800
  | Found hydrogenic basis function :  3 p   5.200
  | Found hydrogenic basis function :  3 s   4.300
  | Found hydrogenic basis function :  5 g  14.400
  | Found hydrogenic basis function :  3 d   6.200
  Species C                   : Missing cutoff potential type.
  Defaulting to exp(1/x)/(1-x)^2 type cutoff potential.
  Species C : No 'logarithmic' tag. Using default grid for free atom:
  | Default logarithmic grid data [bohr] : 0.1000E-03 0.1000E+03 0.1012E+01
  Species C : On-site basis accuracy parameter (for Gram-Schmidt orthonormalisation) not specified.
  Using default value basis_acc =  0.1000000E-03.
  Species C                   : Using default innermost maximum threshold i_radial=  2 for radial functions.
  Species C                   : Default cutoff onset for free atom density etc. : 0.40000000E+01 AA.
  Species C                   : Basic radial grid will be enhanced according to radial_multiplier =   2, to contain    69 grid points.
 
  Finished reading input file 'control.in'. Consistency checks are next.
 
  MPI_IN_PLACE appears to work with this MPI implementation.
  | Keeping use_mpi_in_place .true. (see manual).
  Target number of points in a grid batch is not set. Defaulting to  100
  Method for grid partitioning is not set. Defaulting to parallel hash+maxmin partitioning.
  Batch size limit is not set. Defaulting to    200
  By default, will store active basis functions for each batch.
  If in need of memory, prune_basis_once .false. can be used to disable this option.
  communication_type for Hartree potential was not specified.
  Defaulting to calc_hartree .
  Pulay mixer: Number of initial linear mixing iterations not set.
  Defaulting to    0 iterations.
  Work space size for distributed Hartree potential not set.
  Defaulting to   0.200000E+03 MB.
  Algorithm-dependent basis array size parameters:
  | n_max_pulay                         :        5
  Presetting      1001 iterations before the initial mixing cycle
  is restarted anyway using the sc_init_iter criterion / keyword.
  Presetting a factor      1.000 between actual scf density residual
  and density convergence criterion sc_accuracy_rho below which sc_init_iter
  takes no effect.
  Calculation of forces was not defined in control.in. No forces will be calculated.
  Geometry relaxation not requested: no relaxation will be performed.
  No accuracy limit for integral partition fn. given. Defaulting to  0.1000E-14.
  No threshold value for u(r) in integrations given. Defaulting to  0.1000E-05.
  No accuracy for occupation numbers given. Defaulting to  0.1000E-12.
  No threshold value for occupation numbers given. Defaulting to  0.0000E+00.
  No accuracy for fermi level given. Defaulting to  0.1000E-19.
  Maximum # of iterations to find E_F not set. Defaulting to  200.
  Will not use alltoall communication since running on < 1024 CPUs.
  partition_type (choice of integration weights) for integrals was not specified.
  | Using a version of the partition function of Stratmann and coworkers ('stratmann_sparse').
  | At each grid point, the set of atoms used to build the partition table is smoothly restricted to
  | only those atoms whose free-atom density would be non-zero at that grid point.
  Partitioning for Hartree potential was not defined. Using partition_type for integrals.
  | Adjusted default value of keyword multip_moments_threshold to:       0.10000000E-11
  | This value may affect high angular momentum components of the Hartree potential in periodic systems.
  No q(lm)/r^(l+1) cutoff set for long-range Hartree potential.
  | Using default value of  0.100000E-09 .
  | Verify using the multipole_threshold keyword.
  Defaulting to new monopole extrapolation.
  Density update method: automatic selection selected.
 * Warning: use_local_index and/or load_balancing needs packed_matrix_format = index
 * Changing the default setting to packed_matrix_format = index
------------------------------------------------------------


------------------------------------------------------------
          Reading geometry description geometry.in.
------------------------------------------------------------
  Input structure read successfully.
  The structure contains       36 atoms,  and a total of        146.000 electrons.

  Input geometry:
  | No unit cell requested.
  | Atomic structure:
  |       Atom                x [A]            y [A]            z [A]
  |    1: Species H            15.88156600       21.42923400       33.00418800
  |    2: Species C            15.05268400       22.00796600       33.39854300
  |    3: Species C            13.99665800       22.43725700       32.52820500
  |    4: Species C            15.07114600       22.36677800       34.75810800
  |    5: Species C            12.92832300       23.16761100       33.02824400
  |    6: Species C            14.05881300       22.05932100       31.12133900
  |    7: Species C            13.95973400       23.12104900       35.23652400
  |    8: Species H            15.88845900       22.05442500       35.39613100
  |    9: Species C            11.88583600       23.50557900       32.12547100
  |   10: Species C            12.91601500       23.52028100       34.41348700
  |   11: Species C            13.01694100       22.45823600       30.23208100
  |   12: Species C            15.10868500       21.32273700       30.55237600
  |   13: Species C            13.93388700       23.52600200       36.65825600
  |   14: Species H            11.01344500       24.05471200       32.46739000
  |   15: Species C            11.97506900       23.19571100       30.79563800
  |   16: Species C            11.85321900       24.26218100       34.95406900
  |   17: Species C            13.04155700       22.19724700       28.83467500
  |   18: Species C            15.10314700       21.02087000       29.17659300
  |   19: Species H            15.94224500       20.96737300       31.15026000
  |   20: Species C            12.86924500       24.28258900       37.16505200
  |   21: Species C            14.93698900       23.17629200       37.54481100
  |   22: Species H            11.16058700       23.51403200       30.14315500
  |   23: Species H            11.02556800       24.55782300       34.31672300
  |   24: Species C            11.81321800       24.62303600       36.27038800
  |   25: Species H            12.24264500       22.56550300       28.19421900
  |   26: Species C            14.11112200       21.47932100       28.37112500
  |   27: Species H            15.92532100       20.43375500       28.77021000
  |   28: Species C            12.78924300       24.69921800       38.50569700
  |   29: Species C            14.87483300       23.59288800       38.88951100
  |   30: Species H            15.79479500       22.58328800       37.23830100
  |   31: Species H            10.96353600       25.18686100       36.65190400
  |   32: Species H            14.16718500       21.25775700       27.30212300
  |   33: Species H            11.93783700       25.29194700       38.83599300
  |   34: Species C            13.81203800       24.33894000       39.33549100
  |   35: Species H            15.67417600       23.30054700       39.56996900
  |   36: Species H            13.77800600       24.63850600       40.38516700
  |

  | The smallest distance between any two atoms is         1.08288424 AA.
  |
  | The first atom of this pair is atom number                      4 .
  | The second atom of this pair is atom number                     8 .

  Number of empty states per atom not set in control.in - providing a guess from actual geometry.
  | Total number of empty states used during s.c.f. cycle:       87
  If you use a very high smearing, use empty_states (per atom!) in control.in to increase this value.

  Structure-dependent array size parameters: 
  | Maximum number of distinct radial functions  :       18
  | Maximum number of basis functions            :     1068
  | Number of Kohn-Sham states (occupied + empty):      160
------------------------------------------------------------

------------------------------------------------------------
          Preparing all fixed parts of the calculation.
------------------------------------------------------------
  Determining machine precision:
    2.225073858507201E-308
  Setting up grids for atomic and cluster calculations.

  Creating wave function, potential, and density for free atoms.

  Species: H

  List of occupied orbitals and eigenvalues:
    n    l              occ      energy [Ha]    energy [eV]
    1    0           1.0000        -0.238386        -6.4868


  Species: C

  List of occupied orbitals and eigenvalues:
    n    l              occ      energy [Ha]    energy [eV]
    1    0           2.0000       -10.049212      -273.4530
    2    0           2.0000        -0.504761       -13.7352
    2    1           2.0000        -0.193631        -5.2690

  Creating fixed part of basis set: Ionic, confined, hydrogenic.
 
  H                    hydrogenic:
 
  List of hydrogenic basis orbitals: 
    n    l      effective z      eigenvalue [eV]  inner max. [A]     outer max. [A]     outer radius [A]   
    2    0         2.100000       -14.9965           0.193243           1.317208           5.373006
    2    1         3.500000       -41.6672           0.602369           0.602369           4.056063
    1    0         0.850000        -9.8292           0.624871           0.624871           5.373006
    2    1         3.700000       -46.5653           0.573622           0.573622           3.910002
    2    0         1.200000        -4.5995           0.334980           2.228188           5.505995
    3    2         7.000000       -74.0753           0.680699           0.680699           3.769201
 
 
  C                    hydrogenic:
 
  List of hydrogenic basis orbitals: 
    n    l      effective z      eigenvalue [eV]  inner max. [A]     outer max. [A]     outer radius [A]   
    2    1         1.700000        -9.8152           1.245706           1.245706           5.401630
    3    2         6.000000       -54.4226           0.792453           0.792453           4.178599
    2    0         4.900000       -81.6681           0.082559           0.562749           3.353238
    4    3         9.800000       -81.6681           0.863254           0.863254           4.028125
    3    1         5.200000       -40.8774           0.305389           1.215618           4.898362
    3    0         4.300000       -27.9508           0.091041           1.610311           5.401630
    5    4        14.400000      -112.8510           0.917666           0.917666           3.883070
    3    2         6.200000       -58.1113           0.763917           0.763917           4.077671
 

  Adding cutoff potential to free-atom effective potential.
  Creating atomic-like basis functions for current effective potential.

  Species H                   :

  List of atomic basis orbitals and eigenvalues:
    n    l      energy [Ha]    energy [eV]    outer radius [A]
    1    0        -0.238386        -6.4868       5.373006


  Species C                   :

  List of atomic basis orbitals and eigenvalues:
    n    l      energy [Ha]    energy [eV]    outer radius [A]
    1    0       -10.049212      -273.4530       1.934409
    2    0        -0.504761       -13.7352       5.271162
    2    1        -0.193631        -5.2690       5.401630

  Assembling full basis from fixed parts.
  | Species H :   atomic orbital   1 s accepted.
  | Species H :    hydro orbital   2 s accepted.
  | Species H :    hydro orbital   1 s accepted.
  | Species H :    hydro orbital   2 s accepted.
  | Species H :    hydro orbital   2 p accepted.
  | Species H :    hydro orbital   2 p accepted.
  | Species H :    hydro orbital   3 d accepted.
  | Species C :   atomic orbital   1 s accepted.
  | Species C :    hydro orbital   2 s accepted.
  | Species C :   atomic orbital   2 s accepted.
  | Species C :    hydro orbital   3 s accepted.
  | Species C :    hydro orbital   3 p accepted.
  | Species C :   atomic orbital   2 p accepted.
  | Species C :    hydro orbital   2 p accepted.
  | Species C :    hydro orbital   3 d accepted.
  | Species C :    hydro orbital   3 d accepted.
  | Species C :    hydro orbital   4 f accepted.
  | Species C :    hydro orbital   5 g accepted.
 
  Basis size parameters after reduction:
  | Total number of radial functions:       18
  | Total number of basis functions :     1068
 
  Per-task memory consumption for arrays in subroutine allocate_ext:
  |           4.438696MB.
  Testing on-site integration grid accuracy.
  |  Species  Function  <phi|h_atom|phi> (log., in eV)  <phi|h_atom|phi> (rad., in eV)
           1        1                 -6.4870767962                 -6.4871688290
           1        2                 13.5032046589                 13.5028982997
           1        3                 32.8195184817                 32.8119941656
           1        4                 33.8513856511                 33.7670005767 ***
           1        5                 28.8544614965                 28.8544615203
           1        6                 59.6326952547                 59.6327656460
           1        7                 60.2719308513                 60.2719305949
           2        8               -273.4529726040               -273.4529710464
           2        9                -10.7721037319                -10.7721022101
           2       10                 17.6044132601                 17.6044162063
           2       11                 53.7706460658                 53.7706913770
           2       12                 15.0973290362                 15.0973256030
           2       13                  3.8545134692                  3.8545724687
           2       14                 12.1156992592                 12.1182024431
           2       15                 29.4352039302                 29.4352041816
           2       16                 54.8741144708                 54.8740268729
           2       17                 59.3556032049                 59.3556031382
           2       18                 93.4551837154                 93.4551838009
 * Note: Onsite integrals marked "***" above are less accurate than
 * onsite_accuracy_threshold =    0.03000 eV. Usually, this is harmless.
 * When in doubt, tighten the "radial" and/or "radial_multiplier" flags to check.

  Preparing densities etc. for the partition functions (integrals / Hartree potential).

  Preparations completed.
  max(cpu_time)          :      0.197 s.
  Wall clock time (cpu1) :      0.208 s.
------------------------------------------------------------

------------------------------------------------------------
          Begin self-consistency loop: Initialization.

          Date     :  20210620, Time     :  180102.416
------------------------------------------------------------

  Initializing index lists of integration centers etc. from given atomic structure:
  | Number of centers in hartree potential         :        36
  | Number of centers in hartree multipole         :        36
  | Number of centers in electron density summation:        36
  | Number of centers in basis integrals           :        36
  | Number of centers in integrals                 :        36
  | Number of centers in hamiltonian               :        36
  * Using 56 tasks for Scalapack Eigenvalue solver.
  Detailed listing of tasks and assigned k-points:
  (for non-periodic systems, the "k-point" denotes an internal label only)
   Task     0 k-point     1 on d024
   Task     1 k-point     1 on d024
   Task     2 k-point     1 on d024
   Task     3 k-point     1 on d024
   Task     4 k-point     1 on d024
   Task     5 k-point     1 on d024
   Task     6 k-point     1 on d024
   Task     7 k-point     1 on d024
   Task     8 k-point     1 on d024
   Task     9 k-point     1 on d024
   Task    10 k-point     1 on d024
   Task    11 k-point     1 on d024
   Task    12 k-point     1 on d024
   Task    13 k-point     1 on d024
   Task    14 k-point     1 on d024
   Task    15 k-point     1 on d024
   Task    16 k-point     1 on d024
   Task    17 k-point     1 on d024
   Task    18 k-point     1 on d024
   Task    19 k-point     1 on d024
   Task    20 k-point     1 on d024
   Task    21 k-point     1 on d024
   Task    22 k-point     1 on d024
   Task    23 k-point     1 on d024
   Task    24 k-point     1 on d024
   Task    25 k-point     1 on d024
   Task    26 k-point     1 on d024
   Task    27 k-point     1 on d024
   Task    28 k-point     1 on d024
   Task    29 k-point     1 on d024
   Task    30 k-point     1 on d024
   Task    31 k-point     1 on d024
   Task    32 k-point     1 on d024
   Task    33 k-point     1 on d024
   Task    34 k-point     1 on d024
   Task    35 k-point     1 on d024
   Task    36 k-point     1 on d024
   Task    37 k-point     1 on d024
   Task    38 k-point     1 on d024
   Task    39 k-point     1 on d024
   Task    40 k-point     1 on d024
   Task    41 k-point     1 on d024
   Task    42 k-point     1 on d024
   Task    43 k-point     1 on d024
   Task    44 k-point     1 on d024
   Task    45 k-point     1 on d024
   Task    46 k-point     1 on d024
   Task    47 k-point     1 on d024
   Task    48 k-point     1 on d024
   Task    49 k-point     1 on d024
   Task    50 k-point     1 on d024
   Task    51 k-point     1 on d024
   Task    52 k-point     1 on d024
   Task    53 k-point     1 on d024
   Task    54 k-point     1 on d024
   Task    55 k-point     1 on d024
  Tasks:    56 split into      8 X      7 BLACS grid
  Calculating block size based on n_basis =         1068 max_nprow =            8 max_npcol =            7
  ScaLAPACK block size set to:           16
  Allocating        0.184 MB for ovlp
  Allocating        0.184 MB for ham
  Allocating        0.184 MB for eigenvec
  Required Scalapack workspace - INTEGER:            1 REAL:             1
  Partitioning the integration grid into batches with parallel hashing+maxmin method.
  | Number of batches:     5838
  | Maximal batch size:     200
  | Minimal batch size:       4
  | Average batch size:     102.778
  | Standard deviation of batch sizes:      34.670

  Integration load balanced across     56 MPI tasks.
  Work distribution over tasks is as follows:
  Task      0 has      10807 integration points.
  Task      1 has      10853 integration points.
  Task      2 has      10590 integration points.
  Task      3 has      10790 integration points.
  Task      4 has      10637 integration points.
  Task      5 has      10724 integration points.
  Task      6 has      10649 integration points.
  Task      7 has      10786 integration points.
  Task      8 has      10813 integration points.
  Task      9 has      10561 integration points.
  Task     10 has      10875 integration points.
  Task     11 has      10607 integration points.
  Task     12 has      10724 integration points.
  Task     13 has      10658 integration points.
  Task     14 has      10869 integration points.
  Task     15 has      10788 integration points.
  Task     16 has      10587 integration points.
  Task     17 has      10793 integration points.
  Task     18 has      10702 integration points.
  Task     19 has      10730 integration points.
  Task     20 has      10619 integration points.
  Task     21 has      10784 integration points.
  Task     22 has      10719 integration points.
  Task     23 has      10677 integration points.
  Task     24 has      10748 integration points.
  Task     25 has      10692 integration points.
  Task     26 has      10734 integration points.
  Task     27 has      10595 integration points.
  Task     28 has      10736 integration points.
  Task     29 has      10744 integration points.
  Task     30 has      10676 integration points.
  Task     31 has      10801 integration points.
  Task     32 has      10713 integration points.
  Task     33 has      10701 integration points.
  Task     34 has      10640 integration points.
  Task     35 has      10746 integration points.
  Task     36 has      10748 integration points.
  Task     37 has      10651 integration points.
  Task     38 has      10784 integration points.
  Task     39 has      10719 integration points.
  Task     40 has      10730 integration points.
  Task     41 has      10614 integration points.
  Task     42 has      10796 integration points.
  Task     43 has      10811 integration points.
  Task     44 has      10599 integration points.
  Task     45 has      10750 integration points.
  Task     46 has      10661 integration points.
  Task     47 has      10727 integration points.
  Task     48 has      10636 integration points.
  Task     49 has      10769 integration points.
  Task     50 has      10714 integration points.
  Task     51 has      10677 integration points.
  Task     52 has      10836 integration points.
  Task     53 has      10617 integration points.
  Task     54 has      10734 integration points.
  Task     55 has      10575 integration points.
  Initializing partition tables, free-atom densities, potentials, etc. across the integration grid (initialize_grid_storage).
  | initialize_grid_storage: Actual outermost partition radius vs. multipole_radius_free
  | (-- VB: in principle, multipole_radius_free should be larger, hence this output)
  | Species        1: Confinement radius =              6.000000000000000 AA, multipole_radius_free =              6.071692442739658 AA.
  | Species        1: outer_partition_radius set to              6.071692442739658 AA .
  | Species        2: Confinement radius =              6.000000000000000 AA, multipole_radius_free =              6.029870734432609 AA.
  | Species        2: outer_partition_radius set to              6.029870734432609 AA .
  | The sparse table of interatomic distances needs     15.2680 kbyte instead of    10.3680 kbyte of memory.
  | Using the partition_type stratmann_smoother will reduce your memory usage.
  | Net number of integration points:   600016
  | of which are non-zero points    :   483937
  Renormalizing the initial density to the exact electron count on the 3D integration grid.
  | Initial density: Formal number of electrons (from input files) :     146.0000000000
  | Integrated number of electrons on 3D grid     :     146.0000360853
  | Charge integration error                      :       0.0000360853
  | Normalization factor for density and gradient :       0.9999997528
  Obtaining max. number of non-zero basis functions in each batch (get_n_compute_maxes).
  | Maximal number of non-zero basis functions:      778
  Selecting the method for density update.
  Loop over occupied states selected for charge density update.
  Hamiltonian matrix size:
  | Size of matrix non-packed:                570846
  | Size of matrix packed:          512695
  Allocating        1.367 MB for KS_eigenvector
  use_local_index: Max. local matrix size =       415508
  Task:     0 matrix size:     128778
  Task:     1 matrix size:      81810
  Task:     2 matrix size:     139128
  Task:     3 matrix size:     334455
  Task:     4 matrix size:     384609
  Task:     5 matrix size:     357990
  Task:     6 matrix size:     392273
  Task:     7 matrix size:      96141
  Task:     8 matrix size:      93961
  Task:     9 matrix size:     149331
  Task:    10 matrix size:     222117
  Task:    11 matrix size:     305575
  Task:    12 matrix size:     334325
  Task:    13 matrix size:     293212
  Task:    14 matrix size:     113526
  Task:    15 matrix size:     201386
  Task:    16 matrix size:     198208
  Task:    17 matrix size:     318692
  Task:    18 matrix size:     379151
  Task:    19 matrix size:     357849
  Task:    20 matrix size:     298859
  Task:    21 matrix size:     117370
  Task:    22 matrix size:     224174
  Task:    23 matrix size:     210790
  Task:    24 matrix size:     413240
  Task:    25 matrix size:     398459
  Task:    26 matrix size:     409121
  Task:    27 matrix size:     415508
  Task:    28 matrix size:     306458
  Task:    29 matrix size:     404392
  Task:    30 matrix size:     377763
  Task:    31 matrix size:     292532
  Task:    32 matrix size:     273447
  Task:    33 matrix size:     161028
  Task:    34 matrix size:     173750
  Task:    35 matrix size:     204924
  Task:    36 matrix size:     374551
  Task:    37 matrix size:     336237
  Task:    38 matrix size:     168428
  Task:    39 matrix size:     194272
  Task:    40 matrix size:     124750
  Task:    41 matrix size:     101025
  Task:    42 matrix size:     395895
  Task:    43 matrix size:     301509
  Task:    44 matrix size:     355203
  Task:    45 matrix size:     269627
  Task:    46 matrix size:     275721
  Task:    47 matrix size:     164439
  Task:    48 matrix size:     106491
  Task:    49 matrix size:     395418
  Task:    50 matrix size:     401227
  Task:    51 matrix size:     370885
  Task:    52 matrix size:     167898
  Task:    53 matrix size:      90951
  Task:    54 matrix size:     156520
  Task:    55 matrix size:      77815
  Integrating Hamiltonian matrix: batch-based integration.
  Time summed over all CPUs for integration: real work       85.704 s, elapsed      157.347 s
  Time get_set_sparse_local_matrix_scalapack:     0.010788 s
  Start compute_balanced_batch_distribution
  Done load balancing, time needed:      0.006 s
  Integrating overlap matrix with loadbalancing
  Time summed over all CPUs for integration: real work       24.307 s, elapsed       28.293 s
  Time get_set_full_local_matrix_scalapack:     0.009799 s

  Updating Kohn-Sham eigenvalues and eigenvectors using ELSI and the ELPA eigensolver.
  Overlap matrix is not singular
  | Lowest and highest eigenvalues :  0.11E+02,  0.86E-04
  Finished singularity check of overlap matrix
  | Time :     0.057 s
  Finished Cholesky decomposition
  | Time :     0.013 s
  Finished transformation to standard eigenproblem
  | Time :     0.008 s
  Starting ELPA eigensolver
  Finished solving standard eigenproblem
  | Time :     0.053 s
  Finished back-transformation of eigenvectors
  | Time :     0.003 s

  Obtaining occupation numbers and chemical potential using ELSI.
  | Chemical potential (Fermi level):    -8.29865552 eV
  Writing Kohn-Sham eigenvalues.

  State    Occupation    Eigenvalue [Ha]    Eigenvalue [eV]
      1       2.00000         -10.179123         -276.98804
      2       2.00000         -10.177257         -276.93727
      3       2.00000         -10.173756         -276.84199
      4       2.00000         -10.173633         -276.83865
      5       2.00000         -10.173587         -276.83739
      6       2.00000         -10.172752         -276.81467
      7       2.00000         -10.171347         -276.77643
      8       2.00000         -10.170920         -276.76482
      9       2.00000         -10.170865         -276.76331
     10       2.00000         -10.170317         -276.74840
     11       2.00000         -10.170003         -276.73986
     12       2.00000         -10.169924         -276.73772
     13       2.00000         -10.169838         -276.73538
     14       2.00000         -10.169254         -276.71949
     15       2.00000         -10.168454         -276.69770
     16       2.00000         -10.167088         -276.66055
     17       2.00000         -10.166795         -276.65256
     18       2.00000         -10.164203         -276.58203
     19       2.00000         -10.163833         -276.57196
     20       2.00000         -10.163040         -276.55040
     21       2.00000         -10.162604         -276.53852
     22       2.00000         -10.162528         -276.53645
     23       2.00000          -1.020108          -27.75854
     24       2.00000          -1.008030          -27.42988
     25       2.00000          -0.986124          -26.83381
     26       2.00000          -0.956749          -26.03446
     27       2.00000          -0.940219          -25.58467
     28       2.00000          -0.911147          -24.79356
     29       2.00000          -0.903738          -24.59195
     30       2.00000          -0.888261          -24.17080
     31       2.00000          -0.874267          -23.79003
     32       2.00000          -0.857888          -23.34433
     33       2.00000          -0.849334          -23.11157
     34       2.00000          -0.783679          -21.32498
     35       2.00000          -0.775532          -21.10330
     36       2.00000          -0.771945          -21.00570
     37       2.00000          -0.762321          -20.74381
     38       2.00000          -0.741846          -20.18666
     39       2.00000          -0.736200          -20.03302
     40       2.00000          -0.681453          -18.54327
     41       2.00000          -0.680341          -18.51301
     42       2.00000          -0.671955          -18.28483
     43       2.00000          -0.662894          -18.03825
     44       2.00000          -0.643781          -17.51817
     45       2.00000          -0.635836          -17.30197
     46       2.00000          -0.622551          -16.94047
     47       2.00000          -0.615529          -16.74939
     48       2.00000          -0.601779          -16.37525
     49       2.00000          -0.594406          -16.17462
     50       2.00000          -0.582643          -15.85453
     51       2.00000          -0.576968          -15.70009
     52       2.00000          -0.570540          -15.52518
     53       2.00000          -0.564447          -15.35940
     54       2.00000          -0.562905          -15.31744
     55       2.00000          -0.541697          -14.74034
     56       2.00000          -0.538546          -14.65458
     57       2.00000          -0.538017          -14.64019
     58       2.00000          -0.528888          -14.39179
     59       2.00000          -0.524505          -14.27251
     60       2.00000          -0.521723          -14.19680
     61       2.00000          -0.501516          -13.64695
     62       2.00000          -0.499818          -13.60075
     63       2.00000          -0.495565          -13.48502
     64       2.00000          -0.491143          -13.36469
     65       2.00000          -0.479646          -13.05184
     66       2.00000          -0.462003          -12.57175
     67       2.00000          -0.453382          -12.33715
     68       2.00000          -0.430828          -11.72343
     69       2.00000          -0.418651          -11.39209
     70       2.00000          -0.402602          -10.95535
     71       2.00000          -0.387341          -10.54008
     72       2.00000          -0.370987          -10.09507
     73       2.00000          -0.356716           -9.70675
     74       0.00000          -0.253459           -6.89698
     75       0.00000          -0.243545           -6.62721
     76       0.00000          -0.228374           -6.21438
     77       0.00000          -0.211576           -5.75729
     78       0.00000          -0.191599           -5.21368
     79       0.00000          -0.175231           -4.76829
     80       0.00000          -0.136404           -3.71173
     81       0.00000          -0.132645           -3.60946
     82       0.00000          -0.081538           -2.21876
     83       0.00000          -0.071283           -1.93972
     84       0.00000          -0.070004           -1.90490
     85       0.00000          -0.067137           -1.82689
     86       0.00000          -0.050396           -1.37134
     87       0.00000          -0.049500           -1.34697
     88       0.00000          -0.034496           -0.93867
     89       0.00000          -0.033371           -0.90807
     90       0.00000          -0.027064           -0.73645
     91       0.00000          -0.021598           -0.58772
     92       0.00000          -0.012607           -0.34305
     93       0.00000          -0.005797           -0.15775
     94       0.00000          -0.004874           -0.13264
     95       0.00000          -0.000913           -0.02485
     96       0.00000           0.005476            0.14901
     97       0.00000           0.005766            0.15691
     98       0.00000           0.008975            0.24423
     99       0.00000           0.014568            0.39641
    100       0.00000           0.015083            0.41043
    101       0.00000           0.022521            0.61282
    102       0.00000           0.034984            0.95197
    103       0.00000           0.035996            0.97951
    104       0.00000           0.040598            1.10473
    105       0.00000           0.042922            1.16796
    106       0.00000           0.048431            1.31788
    107       0.00000           0.056011            1.52413
    108       0.00000           0.057205            1.55663
    109       0.00000           0.058854            1.60150
    110       0.00000           0.061769            1.68083
    111       0.00000           0.062151            1.69120
    112       0.00000           0.067781            1.84443
    113       0.00000           0.070578            1.92053
    114       0.00000           0.073408            1.99754
    115       0.00000           0.078677            2.14092
    116       0.00000           0.080166            2.18142
    117       0.00000           0.092271            2.51083
    118       0.00000           0.096247            2.61901
    119       0.00000           0.096769            2.63321
    120       0.00000           0.102147            2.77956
    121       0.00000           0.103667            2.82091
    122       0.00000           0.106649            2.90207
    123       0.00000           0.107626            2.92864
    124       0.00000           0.114287            3.10990
    125       0.00000           0.117873            3.20748
    126       0.00000           0.125013            3.40178
    127       0.00000           0.126723            3.44832
    128       0.00000           0.130480            3.55054
    129       0.00000           0.132462            3.60448
    130       0.00000           0.135324            3.68236
    131       0.00000           0.135413            3.68478
    132       0.00000           0.144245            3.92510
    133       0.00000           0.148918            4.05228
    134       0.00000           0.152970            4.16253
    135       0.00000           0.154395            4.20131
    136       0.00000           0.155179            4.22262
    137       0.00000           0.160154            4.35801
    138       0.00000           0.163462            4.44802
    139       0.00000           0.169100            4.60145
    140       0.00000           0.173536            4.72216
    141       0.00000           0.179668            4.88901
    142       0.00000           0.184111            5.00991
    143       0.00000           0.186685            5.07995
    144       0.00000           0.191093            5.19990
    145       0.00000           0.195668            5.32440
    146       0.00000           0.198127            5.39132
    147       0.00000           0.199060            5.41670
    148       0.00000           0.205418            5.58971
    149       0.00000           0.209049            5.68851
    150       0.00000           0.210092            5.71689
    151       0.00000           0.220877            6.01038
    152       0.00000           0.225954            6.14851
    153       0.00000           0.228198            6.20959
    154       0.00000           0.234875            6.39128
    155       0.00000           0.238135            6.47999
    156       0.00000           0.247684            6.73982
    157       0.00000           0.249682            6.79419
    158       0.00000           0.257468            7.00606
    159       0.00000           0.259504            7.06146
    160       0.00000           0.266262            7.24536

  Highest occupied state (VBM) at     -9.70674593 eV
  | Occupation number:      2.00000000

  Lowest unoccupied state (CBM) at    -6.89697700 eV
  | Occupation number:      0.00000000

  Overall HOMO-LUMO gap:      2.80976893 eV.
  Calculating total energy contributions from superposition of free atom densities.

  Total energy components:
  | Sum of eigenvalues            :        -513.42022928 Ha      -13970.87526893 eV
  | XC energy correction          :        -121.53481233 Ha       -3307.13050842 eV
  | XC potential correction       :         156.11071813 Ha        4247.98877566 eV
  | Free-atom electrostatic energy:        -368.65031281 Ha      -10031.48540805 eV
  | Hartree energy correction     :           0.00000000 Ha           0.00000000 eV
  | Entropy correction            :           0.00000000 Ha           0.00000000 eV
  | ---------------------------
  | Total energy                  :        -847.49463629 Ha      -23061.50240974 eV
  | Total energy, T -> 0          :        -847.49463629 Ha      -23061.50240974 eV  <-- do not rely on this value for anything but (periodic) metals
  | Electronic free energy        :        -847.49463629 Ha      -23061.50240974 eV

  Derived energy quantities:
  | Kinetic energy                :         839.45190786 Ha       22842.64863393 eV
  | Electrostatic energy          :       -1565.41173182 Ha      -42597.02053525 eV
  | Energy correction for multipole
  | error in Hartree potential    :           0.00000000 Ha           0.00000000 eV
  | Sum of eigenvalues per atom                           :        -388.07986858 eV
  | Total energy (T->0) per atom                          :        -640.59728916 eV  <-- do not rely on this value for anything but (periodic) metals
  | Electronic free energy per atom                       :        -640.59728916 eV
  Initialize hartree_potential_storage
  Max. number of atoms included in rho_multipole:           36

  End scf initialization - timings             :  max(cpu_time)    wall_clock(cpu1)
  | Time for scf. initialization               :        4.433 s           4.495 s
  | Boundary condition initialization          :        0.001 s           0.003 s
  | Integration                                :        3.352 s           3.358 s
  | Solution of K.-S. eqns.                    :        0.140 s           0.158 s
  | Grid partitioning                          :        0.434 s           0.437 s
  | Preloading free-atom quantities on grid    :        0.013 s           0.017 s
  | Free-atom superposition energy             :        0.040 s           0.040 s
  | Total energy evaluation                    :        0.001 s           0.006 s

  Partial memory accounting:
  | Current value for overall tracked memory usage on task 0  :           2.436 MB
  | Peak value for overall tracked memory usage on task 0     :          19.530 MB after allocating zora_vector2
  | Largest tracked array allocation on task 0 so far         :           4.842 MB  when allocating hamiltonian_shell
  Note:  These values currently only include a subset of arrays which are explicitly tracked.
  The "true" memory usage will be greater.
------------------------------------------------------------

------------------------------------------------------------
          Begin self-consistency iteration #    1

  Date     :  20210620, Time     :  180106.914
------------------------------------------------------------
  Evaluating new KS density.
  Integration grid: deviation in total charge (<rho> - N_e) =   5.684342E-14
  Pulay mixing of updated and previous charge densities.

  Evaluating partitioned Hartree potential by multipole expansion.
  | Analytical far-field extrapolation by fixed multipoles:
  | Hartree multipole sum: apparent total charge =   0.294510E-04
  Summing up the Hartree potential with load balancing.
  Time summed over all CPUs for potential: real work       14.757 s, elapsed       24.089 s
  | RMS charge density error from multipole expansion :   0.114412E-01

  Start compute_balanced_batch_distribution
  Done load balancing, time needed:      0.005 s
  Integrating Hamiltonian matrix: batch-based integration with load balancing
  Time summed over all CPUs for integration: real work       93.593 s, elapsed      102.686 s
  Time get_set_full_local_matrix_scalapack:     0.010114 s
  Start compute_balanced_batch_distribution
  Done load balancing, time needed:      0.005 s

  Updating Kohn-Sham eigenvalues and eigenvectors using ELSI and the ELPA eigensolver.
  Finished transformation to standard eigenproblem
  | Time :     0.009 s
  Starting ELPA eigensolver
  Finished solving standard eigenproblem
  | Time :     0.053 s
  Finished back-transformation of eigenvectors
  | Time :     0.003 s

  Obtaining occupation numbers and chemical potential using ELSI.
  | Chemical potential (Fermi level):    -4.00415354 eV
  Writing Kohn-Sham eigenvalues.

  State    Occupation    Eigenvalue [Ha]    Eigenvalue [eV]
      1       2.00000          -9.980501         -271.58326
      2       2.00000          -9.979448         -271.55459
      3       2.00000          -9.977281         -271.49564
      4       2.00000          -9.973480         -271.39220
      5       2.00000          -9.970922         -271.32258
      6       2.00000          -9.970453         -271.30984
      7       2.00000          -9.965192         -271.16666
      8       2.00000          -9.964025         -271.13493
      9       2.00000          -9.963387         -271.11756
     10       2.00000          -9.960705         -271.04457
     11       2.00000          -9.954965         -270.88837
     12       2.00000          -9.952965         -270.83396
     13       2.00000          -9.951719         -270.80006
     14       2.00000          -9.951065         -270.78227
     15       2.00000          -9.948333         -270.70792
     16       2.00000          -9.947799         -270.69339
     17       2.00000          -9.947011         -270.67195
     18       2.00000          -9.944936         -270.61549
     19       2.00000          -9.944309         -270.59841
     20       2.00000          -9.942263         -270.54274
     21       2.00000          -9.936995         -270.39939
     22       2.00000          -9.934492         -270.33128
     23       2.00000          -0.872290          -23.73621
     24       2.00000          -0.853942          -23.23695
     25       2.00000          -0.830464          -22.59806
     26       2.00000          -0.799518          -21.75599
     27       2.00000          -0.794378          -21.61613
     28       2.00000          -0.766431          -20.85565
     29       2.00000          -0.753420          -20.50160
     30       2.00000          -0.740659          -20.15434
     31       2.00000          -0.720686          -19.61086
     32       2.00000          -0.708575          -19.28130
     33       2.00000          -0.703164          -19.13407
     34       2.00000          -0.640673          -17.43361
     35       2.00000          -0.633692          -17.24363
     36       2.00000          -0.629601          -17.13231
     37       2.00000          -0.618884          -16.84069
     38       2.00000          -0.597468          -16.25793
     39       2.00000          -0.595024          -16.19142
     40       2.00000          -0.548189          -14.91698
     41       2.00000          -0.544416          -14.81430
     42       2.00000          -0.530970          -14.44844
     43       2.00000          -0.522615          -14.22108
     44       2.00000          -0.512105          -13.93510
     45       2.00000          -0.497361          -13.53389
     46       2.00000          -0.481587          -13.10466
     47       2.00000          -0.476994          -12.97966
     48       2.00000          -0.467565          -12.72310
     49       2.00000          -0.455146          -12.38515
     50       2.00000          -0.445707          -12.12830
     51       2.00000          -0.439473          -11.95867
     52       2.00000          -0.437827          -11.91388
     53       2.00000          -0.426946          -11.61779
     54       2.00000          -0.420346          -11.43821
     55       2.00000          -0.417514          -11.36112
     56       2.00000          -0.415403          -11.30369
     57       2.00000          -0.410946          -11.18242
     58       2.00000          -0.396582          -10.79155
     59       2.00000          -0.393607          -10.71060
     60       2.00000          -0.389134          -10.58886
     61       2.00000          -0.368802          -10.03561
     62       2.00000          -0.363794           -9.89933
     63       2.00000          -0.358569           -9.75716
     64       2.00000          -0.347249           -9.44913
     65       2.00000          -0.344073           -9.36272
     66       2.00000          -0.333298           -9.06950
     67       2.00000          -0.332482           -9.04730
     68       2.00000          -0.307748           -8.37426
     69       2.00000          -0.290520           -7.90544
     70       2.00000          -0.277852           -7.56074
     71       2.00000          -0.257399           -7.00418
     72       2.00000          -0.244896           -6.66396
     73       2.00000          -0.231857           -6.30914
     74       0.00000          -0.128142           -3.48692
     75       0.00000          -0.121226           -3.29872
     76       0.00000          -0.102625           -2.79256
     77       0.00000          -0.093435           -2.54250
     78       0.00000          -0.063757           -1.73491
     79       0.00000          -0.054159           -1.47374
     80       0.00000          -0.028859           -0.78529
     81       0.00000          -0.025999           -0.70746
     82       0.00000          -0.022796           -0.62030
     83       0.00000          -0.013980           -0.38040
     84       0.00000          -0.009669           -0.26310
     85       0.00000          -0.009270           -0.25224
     86       0.00000          -0.006532           -0.17775
     87       0.00000           0.008401            0.22860
     88       0.00000           0.009823            0.26730
     89       0.00000           0.023995            0.65294
     90       0.00000           0.028677            0.78034
     91       0.00000           0.043095            1.17269
     92       0.00000           0.048381            1.31652
     93       0.00000           0.052973            1.44148
     94       0.00000           0.055872            1.52034
     95       0.00000           0.064878            1.76543
     96       0.00000           0.074567            2.02907
     97       0.00000           0.084731            2.30565
     98       0.00000           0.086927            2.36542
     99       0.00000           0.089945            2.44754
    100       0.00000           0.094904            2.58247
    101       0.00000           0.096647            2.62989
    102       0.00000           0.102923            2.80067
    103       0.00000           0.106648            2.90205
    104       0.00000           0.108953            2.96478
    105       0.00000           0.119321            3.24688
    106       0.00000           0.119456            3.25055
    107       0.00000           0.121038            3.29362
    108       0.00000           0.126378            3.43892
    109       0.00000           0.126506            3.44241
    110       0.00000           0.127235            3.46225
    111       0.00000           0.129235            3.51666
    112       0.00000           0.131025            3.56539
    113       0.00000           0.149208            4.06016
    114       0.00000           0.152891            4.16037
    115       0.00000           0.153343            4.17267
    116       0.00000           0.153760            4.18402
    117       0.00000           0.156428            4.25661
    118       0.00000           0.159176            4.33140
    119       0.00000           0.160867            4.37740
    120       0.00000           0.169537            4.61332
    121       0.00000           0.172692            4.69918
    122       0.00000           0.174882            4.75877
    123       0.00000           0.186268            5.06861
    124       0.00000           0.187158            5.09284
    125       0.00000           0.189910            5.16772
    126       0.00000           0.192826            5.24705
    127       0.00000           0.196142            5.33731
    128       0.00000           0.197514            5.37464
    129       0.00000           0.199904            5.43967
    130       0.00000           0.201206            5.47508
    131       0.00000           0.207168            5.63733
    132       0.00000           0.209939            5.71273
    133       0.00000           0.212196            5.77416
    134       0.00000           0.218494            5.94552
    135       0.00000           0.221398            6.02454
    136       0.00000           0.228271            6.21158
    137       0.00000           0.229882            6.25542
    138       0.00000           0.236192            6.42712
    139       0.00000           0.243056            6.61388
    140       0.00000           0.245375            6.67700
    141       0.00000           0.245964            6.69301
    142       0.00000           0.254462            6.92427
    143       0.00000           0.261522            7.11637
    144       0.00000           0.262439            7.14134
    145       0.00000           0.264732            7.20372
    146       0.00000           0.268577            7.30836
    147       0.00000           0.279370            7.60204
    148       0.00000           0.281266            7.65365
    149       0.00000           0.283254            7.70774
    150       0.00000           0.286081            7.78465
    151       0.00000           0.290889            7.91548
    152       0.00000           0.304923            8.29739
    153       0.00000           0.305731            8.31936
    154       0.00000           0.309855            8.43160
    155       0.00000           0.312527            8.50430
    156       0.00000           0.319188            8.68554
    157       0.00000           0.319851            8.70360
    158       0.00000           0.328878            8.94923
    159       0.00000           0.333760            9.08208
    160       0.00000           0.336458            9.15547

  Highest occupied state (VBM) at     -6.30914035 eV
  | Occupation number:      2.00000000

  Lowest unoccupied state (CBM) at    -3.48692312 eV
  | Occupation number:      0.00000000

  Overall HOMO-LUMO gap:      2.82221724 eV.

  Total energy components:
  | Sum of eigenvalues            :        -490.02017842 Ha      -13334.12748782 eV
  | XC energy correction          :        -123.11910107 Ha       -3350.24119852 eV
  | XC potential correction       :         158.16763603 Ha        4303.96035948 eV
  | Free-atom electrostatic energy:        -368.65031281 Ha      -10031.48540805 eV
  | Hartree energy correction     :         -23.10406900 Ha        -628.69370498 eV
  | Entropy correction            :           0.00000000 Ha           0.00000000 eV
  | ---------------------------
  | Total energy                  :        -846.72602527 Ha      -23040.58743988 eV
  | Total energy, T -> 0          :        -846.72602527 Ha      -23040.58743988 eV  <-- do not rely on this value for anything but (periodic) metals
  | Electronic free energy        :        -846.72602527 Ha      -23040.58743988 eV

  Derived energy quantities:
  | Kinetic energy                :         846.57854957 Ha       23036.57442186 eV
  | Electrostatic energy          :       -1570.18547378 Ha      -42726.92066323 eV
  | Energy correction for multipole
  | error in Hartree potential    :          -0.05384637 Ha          -1.46523416 eV
  | Sum of eigenvalues per atom                           :        -370.39243022 eV
  | Total energy (T->0) per atom                          :        -640.01631777 eV  <-- do not rely on this value for anything but (periodic) metals
  | Electronic free energy per atom                       :        -640.01631777 eV

  Self-consistency convergence accuracy:
  | Change of charge density      :  0.9393E+00
  | Change of sum of eigenvalues  :  0.6367E+03 eV
  | Change of total energy        :  0.2091E+02 eV

  End self-consistency iteration #     1       :  max(cpu_time)    wall_clock(cpu1)
  | Time for this iteration                    :        3.103 s           3.110 s
  | Charge density update                      :        0.713 s           0.714 s
  | Density mixing                             :        0.002 s           0.004 s
  | Hartree multipole update                   :        0.008 s           0.009 s
  | Hartree multipole summation                :        0.438 s           0.440 s
  | Integration                                :        1.838 s           1.838 s
  | Solution of K.-S. eqns.                    :        0.092 s           0.092 s
  | Total energy evaluation                    :        0.000 s           0.000 s

  Partial memory accounting:
  | Current value for overall tracked memory usage on task 0  :           2.436 MB
  | Peak value for overall tracked memory usage on task 0     :          19.530 MB after allocating zora_vector2
  | Largest tracked array allocation on task 0 so far         :           4.842 MB  when allocating hamiltonian_shell
  Note:  These values currently only include a subset of arrays which are explicitly tracked.
  The "true" memory usage will be greater.
------------------------------------------------------------

------------------------------------------------------------
          Begin self-consistency iteration #    2

  Date     :  20210620, Time     :  180110.025
------------------------------------------------------------
  Evaluating new KS density.
  Integration grid: deviation in total charge (<rho> - N_e) =   0.000000E+00
  Pulay mixing of updated and previous charge densities.

  Evaluating partitioned Hartree potential by multipole expansion.
  | Analytical far-field extrapolation by fixed multipoles:
  | Hartree multipole sum: apparent total charge =   0.295643E-04
  Summing up the Hartree potential with load balancing.
  Time summed over all CPUs for potential: real work       14.880 s, elapsed       17.384 s
  | RMS charge density error from multipole expansion :   0.201228E-01

  Integrating Hamiltonian matrix: batch-based integration with load balancing
  Time summed over all CPUs for integration: real work       94.901 s, elapsed       97.984 s
  Time get_set_full_local_matrix_scalapack:     0.014033 s

  Updating Kohn-Sham eigenvalues and eigenvectors using ELSI and the ELPA eigensolver.
  Finished transformation to standard eigenproblem
  | Time :     0.008 s
  Starting ELPA eigensolver
  Finished solving standard eigenproblem
  | Time :     0.052 s
  Finished back-transformation of eigenvectors
  | Time :     0.003 s

  Obtaining occupation numbers and chemical potential using ELSI.
  | Chemical potential (Fermi level):    -3.25798129 eV
  Highest occupied state (VBM) at     -5.17800171 eV
  | Occupation number:      2.00000000

  Lowest unoccupied state (CBM) at    -2.33338559 eV
  | Occupation number:      0.00000000

  Overall HOMO-LUMO gap:      2.84461612 eV.

  Checking to see if s.c.f. parameters should be adjusted.

  Total energy components:
  | Sum of eigenvalues            :        -482.27445075 Ha      -13123.35551393 eV
  | XC energy correction          :        -123.81420823 Ha       -3369.15602658 eV
  | XC potential correction       :         159.06149211 Ha        4328.28342103 eV
  | Free-atom electrostatic energy:        -368.65031281 Ha      -10031.48540805 eV
  | Hartree energy correction     :         -30.95012998 Ha        -842.19588715 eV
  | Entropy correction            :           0.00000000 Ha           0.00000000 eV
  | ---------------------------
  | Total energy                  :        -846.62760966 Ha      -23037.90941468 eV
  | Total energy, T -> 0          :        -846.62760966 Ha      -23037.90941468 eV  <-- do not rely on this value for anything but (periodic) metals
  | Electronic free energy        :        -846.62760966 Ha      -23037.90941468 eV

  Derived energy quantities:
  | Kinetic energy                :         846.59739194 Ha       23037.08714882 eV
  | Electrostatic energy          :       -1569.41079337 Ha      -42705.84053692 eV
  | Energy correction for multipole
  | error in Hartree potential    :          -0.08769154 Ha          -2.38620817 eV
  | Sum of eigenvalues per atom                           :        -364.53765316 eV
  | Total energy (T->0) per atom                          :        -639.94192819 eV  <-- do not rely on this value for anything but (periodic) metals
  | Electronic free energy per atom                       :        -639.94192819 eV

  Self-consistency convergence accuracy:
  | Change of charge density      :  0.4597E+00
  | Change of sum of eigenvalues  :  0.2108E+03 eV
  | Change of total energy        :  0.2678E+01 eV

  End self-consistency iteration #     2       :  max(cpu_time)    wall_clock(cpu1)
  | Time for this iteration                    :        2.885 s           2.888 s
  | Charge density update                      :        0.717 s           0.717 s
  | Density mixing                             :        0.003 s           0.004 s
  | Hartree multipole update                   :        0.007 s           0.008 s
  | Hartree multipole summation                :        0.312 s           0.313 s
  | Integration                                :        1.753 s           1.752 s
  | Solution of K.-S. eqns.                    :        0.088 s           0.089 s
  | Total energy evaluation                    :        0.000 s           0.002 s

  Partial memory accounting:
  | Current value for overall tracked memory usage on task 0  :           2.436 MB
  | Peak value for overall tracked memory usage on task 0     :          19.530 MB after allocating zora_vector2
  | Largest tracked array allocation on task 0 so far         :           4.842 MB  when allocating hamiltonian_shell
  Note:  These values currently only include a subset of arrays which are explicitly tracked.
  The "true" memory usage will be greater.
------------------------------------------------------------

------------------------------------------------------------
          Begin self-consistency iteration #    3

  Date     :  20210620, Time     :  180112.916
------------------------------------------------------------
  Evaluating new KS density.
  Integration grid: deviation in total charge (<rho> - N_e) =   5.684342E-14
  Pulay mixing of updated and previous charge densities.

  Evaluating partitioned Hartree potential by multipole expansion.
  | Analytical far-field extrapolation by fixed multipoles:
  | Hartree multipole sum: apparent total charge =   0.304206E-04
  Summing up the Hartree potential with load balancing.
  Time summed over all CPUs for potential: real work       14.902 s, elapsed       17.396 s
  | RMS charge density error from multipole expansion :   0.240083E-01

  Integrating Hamiltonian matrix: batch-based integration with load balancing
  Time summed over all CPUs for integration: real work       95.079 s, elapsed       98.139 s
  Time get_set_full_local_matrix_scalapack:     0.014123 s

  Updating Kohn-Sham eigenvalues and eigenvectors using ELSI and the ELPA eigensolver.
  Finished transformation to standard eigenproblem
  | Time :     0.009 s
  Starting ELPA eigensolver
  Finished solving standard eigenproblem
  | Time :     0.053 s
  Finished back-transformation of eigenvectors
  | Time :     0.002 s

  Obtaining occupation numbers and chemical potential using ELSI.
  | Chemical potential (Fermi level):    -3.24476107 eV
  Highest occupied state (VBM) at     -5.21755050 eV
[...]
  |------------------------------------------------------

------------------------------------------------------------
          Post-processing: scaled ZORA corrections to eigenvalues and total energy.

  Date     :  20210620, Time     :  180153.443
------------------------------------------------------------
  Computing correction matrix for scaled ZORA eigenvalues.
  Evaluating scaled zora correction for each Kohn-Sham eigenstate.
  Evaluating scaled zora correction for each Kohn-Sham eigenstate.
  Time get_set_sparse_local_matrix_scalapack:     2.175443 s
  Writing Kohn-Sham eigenvalues.

  State    Occupation    Eigenvalue [Ha]    Eigenvalue [eV]
      1       2.00000          -9.910462         -269.67738
      2       2.00000          -9.909936         -269.66308
      3       2.00000          -9.909400         -269.64849
      4       2.00000          -9.906319         -269.56464
      5       2.00000          -9.905748         -269.54911
      6       2.00000          -9.904550         -269.51652
      7       2.00000          -9.904473         -269.51442
      8       2.00000          -9.903055         -269.47583
      9       2.00000          -9.902218         -269.45307
     10       2.00000          -9.901979         -269.44655
     11       2.00000          -9.899942         -269.39114
     12       2.00000          -9.899375         -269.37570
     13       2.00000          -9.896811         -269.30593
     14       2.00000          -9.896315         -269.29244
     15       2.00000          -9.895462         -269.26921
     16       2.00000          -9.895448         -269.26883
     17       2.00000          -9.895410         -269.26780
     18       2.00000          -9.894636         -269.24675
     19       2.00000          -9.893601         -269.21858
     20       2.00000          -9.893220         -269.20821
     21       2.00000          -9.891658         -269.16570
     22       2.00000          -9.891479         -269.16083
     23       2.00000          -0.820063          -22.31505
     24       2.00000          -0.804498          -21.89151
     25       2.00000          -0.780347          -21.23433
     26       2.00000          -0.748536          -20.36871
     27       2.00000          -0.738278          -20.08956
     28       2.00000          -0.711255          -19.35422
     29       2.00000          -0.700883          -19.07199
     30       2.00000          -0.685267          -18.64707
     31       2.00000          -0.667391          -18.16062
     32       2.00000          -0.652759          -17.76248
     33       2.00000          -0.645005          -17.55148
     34       2.00000          -0.584055          -15.89293
     35       2.00000          -0.574815          -15.64151
     36       2.00000          -0.572362          -15.57478
     37       2.00000          -0.561813          -15.28770
     38       2.00000          -0.538807          -14.66168
     39       2.00000          -0.536991          -14.61228
     40       2.00000          -0.488928          -13.30442
     41       2.00000          -0.485600          -13.21384
     42       2.00000          -0.471068          -12.81841
     43       2.00000          -0.463992          -12.62587
     44       2.00000          -0.452218          -12.30548
     45       2.00000          -0.436442          -11.87619
     46       2.00000          -0.422855          -11.50648
     47       2.00000          -0.418991          -11.40134
     48       2.00000          -0.405905          -11.04523
     49       2.00000          -0.394839          -10.74413
     50       2.00000          -0.385009          -10.47664
     51       2.00000          -0.381493          -10.38096
     52       2.00000          -0.379471          -10.32593
     53       2.00000          -0.378412          -10.29711
     54       2.00000          -0.365365           -9.94208
     55       2.00000          -0.359466           -9.78157
     56       2.00000          -0.356877           -9.71112
     57       2.00000          -0.354785           -9.65418
     58       2.00000          -0.349311           -9.50522
     59       2.00000          -0.332436           -9.04604
     60       2.00000          -0.331112           -9.01001
     61       2.00000          -0.328482           -8.93845
     62       2.00000          -0.303193           -8.25030
     63       2.00000          -0.298784           -8.13031
     64       2.00000          -0.294933           -8.02553
     65       2.00000          -0.290801           -7.91309
     66       2.00000          -0.285805           -7.77715
     67       2.00000          -0.280969           -7.64556
     68       2.00000          -0.267313           -7.27395
     69       2.00000          -0.251977           -6.85665
     70       2.00000          -0.236845           -6.44488
     71       2.00000          -0.218118           -5.93530
     72       2.00000          -0.203301           -5.53210
     73       2.00000          -0.189733           -5.16290
     74       0.00000          -0.084995           -2.31283
     75       0.00000          -0.079762           -2.17042
     76       0.00000          -0.062244           -1.69375
     77       0.00000          -0.052388           -1.42555
     78       0.00000          -0.023165           -0.63034
     79       0.00000          -0.013403           -0.36471
     80       0.00000          -0.005296           -0.14413
     81       0.00000          -0.002705           -0.07361
     82       0.00000          -0.001271           -0.03458
     83       0.00000           0.012096            0.32915
     84       0.00000           0.012672            0.34481
     85       0.00000           0.029411            0.80032
     86       0.00000           0.030133            0.81995
     87       0.00000           0.030532            0.83082
     88       0.00000           0.034974            0.95169
     89       0.00000           0.046937            1.27721
     90       0.00000           0.049174            1.33809
     91       0.00000           0.069850            1.90070
     92       0.00000           0.077187            2.10036
     93       0.00000           0.081462            2.21669
     94       0.00000           0.084616            2.30251
     95       0.00000           0.088851            2.41775
     96       0.00000           0.098511            2.68063
     97       0.00000           0.105018            2.85768
     98       0.00000           0.111275            3.02795
     99       0.00000           0.118887            3.23509
    100       0.00000           0.121003            3.29265
    101       0.00000           0.123028            3.34776
    102       0.00000           0.123346            3.35641
    103       0.00000           0.133234            3.62549
    104       0.00000           0.138412            3.76639
    105       0.00000           0.145391            3.95629
    106       0.00000           0.145573            3.96124
    107       0.00000           0.147684            4.01869
    108       0.00000           0.157403            4.28316
    109       0.00000           0.158510            4.31327
    110       0.00000           0.160562            4.36912
    111       0.00000           0.167097            4.54694
    112       0.00000           0.169382            4.60912
    113       0.00000           0.171087            4.65551
    114       0.00000           0.184469            5.01967
    115       0.00000           0.185980            5.06078
    116       0.00000           0.187070            5.09043
    117       0.00000           0.190092            5.17267
    118       0.00000           0.192757            5.24519
    119       0.00000           0.194007            5.27921
    120       0.00000           0.200304            5.45056
    121       0.00000           0.206107            5.60847
    122       0.00000           0.207911            5.65756
    123       0.00000           0.210065            5.71615
    124       0.00000           0.214150            5.82732
    125       0.00000           0.216923            5.90278
    126       0.00000           0.220758            6.00713
    127       0.00000           0.222971            6.06734
    128       0.00000           0.225201            6.12804
    129       0.00000           0.229709            6.25071
    130       0.00000           0.235281            6.40232
    131       0.00000           0.237756            6.46967
    132       0.00000           0.247159            6.72553
    133       0.00000           0.247308            6.72960
    134       0.00000           0.251465            6.84272
    135       0.00000           0.253516            6.89851
    136       0.00000           0.253928            6.90973
    137       0.00000           0.265501            7.22464
    138       0.00000           0.272285            7.40925
    139       0.00000           0.274604            7.47235
    140       0.00000           0.275976            7.50968
    141       0.00000           0.281610            7.66300
    142       0.00000           0.283424            7.71236
    143       0.00000           0.285756            7.77582
    144       0.00000           0.292068            7.94758
    145       0.00000           0.295506            8.04113
    146       0.00000           0.302976            8.24441
    147       0.00000           0.306058            8.32827
    148       0.00000           0.316620            8.61566
    149       0.00000           0.319512            8.69437
    150       0.00000           0.327000            8.89811
    151       0.00000           0.328770            8.94628
    152       0.00000           0.336025            9.14369
    153       0.00000           0.340913            9.27672
    154       0.00000           0.344130            9.36425
    155       0.00000           0.345493            9.40133
    156       0.00000           0.350537            9.53858
    157       0.00000           0.354310            9.64127
    158       0.00000           0.360597            9.81235
    159       0.00000           0.361721            9.84292
    160       0.00000           0.364684            9.92357

  Highest occupied state (VBM) at     -5.16290133 eV
  | Occupation number:      2.00000000

  Lowest unoccupied state (CBM) at    -2.31282842 eV
  | Occupation number:      0.00000000

  Overall HOMO-LUMO gap:      2.85007290 eV.

  Total energy components:
  | Sum of eigenvalues            :        -481.97889590 Ha      -13115.31305718 eV
  | XC energy correction          :        -123.84517087 Ha       -3369.99856302 eV
  | XC potential correction       :         159.09603403 Ha        4329.22335442 eV
  | Free-atom electrostatic energy:        -368.65031281 Ha      -10031.48540805 eV
  | Hartree energy correction     :         -31.05661066 Ha        -845.09337397 eV
  | Entropy correction            :           0.00000000 Ha           0.00000000 eV
  | ---------------------------
  | Total energy                  :        -846.43495622 Ha      -23032.66704781 eV
  | Total energy, T -> 0          :        -846.43495622 Ha      -23032.66704781 eV  <-- do not rely on this value for anything but (periodic) metals
  | Electronic free energy        :        -846.43495622 Ha      -23032.66704781 eV

  Derived energy quantities:
  | Kinetic energy                :         844.31724263 Ha       22975.04112920 eV
  | Electrostatic energy          :       -1566.90702798 Ha      -42637.70961399 eV
  | Energy correction for multipole
  | error in Hartree potential    :          -0.10122207 Ha          -2.75439278 eV
  | Sum of eigenvalues per atom                           :        -364.31425159 eV
  | Total energy (T->0) per atom                          :        -639.79630688 eV  <-- do not rely on this value for anything but (periodic) metals
  | Electronic free energy per atom                       :        -639.79630688 eV
  End evaluation of scaled ZORA corrections.
  | Time for scaled ZORA corrections           :        3.119 s           3.130 s
------------------------------------------------------------

  Energy and forces in a compact form:
  | Total energy uncorrected      :         -0.230326670478127E+05 eV
  | Total energy corrected        :         -0.230326670478127E+05 eV  <-- do not rely on this value for anything but (periodic) metals
  | Electronic free energy        :         -0.230326670478127E+05 eV

  ------------------------------------ 
  Start decomposition of the XC Energy 
  ------------------------------------ 
  X and C from original XC functional choice 
  Hartree-Fock Energy :          0.000000000 Ha              0.000000000 eV
  X Energy            :       -118.957361614 Ha          -3236.994505981 eV
  C Energy            :         -4.887809256 Ha           -133.004057041 eV
  Total XC Energy     :       -123.845170870 Ha          -3369.998563022 eV
  ------------------------------------ 
  LDA X and C from self-consistent density 
  X Energy LDA        :       -107.736432248 Ha          -2931.657482555 eV
  C Energy LDA        :         -9.418211935 Ha           -256.282586258 eV
  ------------------------------------ 
  End decomposition of the XC Energy 
  ------------------------------------ 

------------------------------------------------------------

------------------------------------------------------------------------------
  Final output of selected total energy values:

  The following output summarizes some interesting total energy values
  at the end of a run (AFTER all relaxation, molecular dynamics, etc.).

  | Total energy of the DFT / Hartree-Fock s.c.f. calculation      :         -23032.667047813 eV
  | Final zero-broadening corrected energy (caution - metals only) :         -23032.667047813 eV
  | For reference only, the value of 1 Hartree used in FHI-aims is :             27.211384500 eV

  Before relying on these values, please be sure to understand exactly which
  total energy value is referred to by a given number. Different objects may
  all carry the same name 'total energy'. Definitions:

  Total energy of the DFT / Hartree-Fock s.c.f. calculation:
  | Note that this energy does not include ANY quantities calculated after the
  | s.c.f. cycle, in particular not ANY RPA, MP2, etc. many-body perturbation terms.
  | Scalar relativistic effects have been included in the 'scaled ZORA' approximation.

  Final zero-broadening corrected energy:
  | For metallic systems only, a broadening of the occupation numbers at the Fermi
  | level can be extrapolated back to zero broadening by an electron-gas inspired
  | formula. For all systems that are not real metals, this value can be
  | meaningless and should be avoided.

------------------------------------------------------------------------------
  Methods described in the following list of references were used in this FHI-aims run.
  If you publish the results, please make sure to cite these reference if they apply.
  FHI-aims is an academic code, and for our developers (often, Ph.D. students
  and postdocs), scientific credit in the community is essential.
  Thank you for helping us!

  For any use of FHI-aims, please cite:

    Volker Blum, Ralf Gehrke, Felix Hanke, Paula Havu, Ville Havu,
    Xinguo Ren, Karsten Reuter, and Matthias Scheffler
    'Ab initio molecular simulations with numeric atom-centered orbitals'
    Computer Physics Communications 180, 2175-2196 (2009)
    http://dx.doi.org/10.1016/j.cpc.2009.06.022


  The scalable eigensolver library ELPA was used in your run.
  ELPA is essential especially for large systems on hundreds or thousands of CPUs.
  For ELPA, please cite:

    Andreas Marek, Volker Blum, Rainer Johanni, Ville Havu, Bruno Lang,
    Thomas Auckenthaler, Alexander Heinecke, Hans-Joachim Bungartz, and Hermann Lederer,
    'The ELPA Library - Scalable Parallel Eigenvalue Solutions
    for Electronic Structure Theory and Computational Science'
    The Journal of Physics: Condensed Matter 26, 213201 (2014).
    http://dx.doi.org/10.1088/0953-8984/26/21/213201


  The ELSI infrastructure was used in your run to solve the Kohn-Sham electronic structure.
  Please check out http://elsi-interchange.org to learn more.
  If scalability is important for your project, please acknowledge ELSI by citing:

    V. W-z. Yu, F. Corsetti, A. Garcia, W. P. Huhn, M. Jacquelin, W. Jia,
    B. Lange, L. Lin, J. Lu, W. Mi, A. Seifitokaldani, A. Vazquez-Mayagoitia,
    C. Yang, H. Yang, and V. Blum
    'ELSI: A unified software interface for Kohn-Sham electronic structure solvers'
    Computer Physics Communications 222, 267-285 (2018).
    http://dx.doi.org/10.1016/j.cpc.2017.09.007


  For the real-space grid partitioning and parallelization used in this calculation, please cite:

    Ville Havu, Volker Blum, Paula Havu, and Matthias Scheffler,
    'Efficient O(N) integration for all-electron electronic structure calculation'
    'using numerically tabulated basis functions'
    Journal of Computational Physics 228, 8367-8379 (2009).
    http://dx.doi.org/10.1016/j.jcp.2009.08.008

  Of course, there are many other important community references, e.g., those cited in the
  above references. Our list is limited to references that describe implementations in the
  FHI-aims code. The reason is purely practical (length of this list) - please credit others as well.

------------------------------------------------------------
          Leaving FHI-aims.
          Date     :  20210620, Time     :  180156.618

          Computational steps:
          | Number of self-consistency cycles          :           16
          | Number of SCF (re)initializations          :            1

          Detailed time accounting                     :  max(cpu_time)    wall_clock(cpu1)
          | Total time                                 :       54.415 s          54.601 s
          | Preparation time                           :        0.197 s           0.208 s
          | Boundary condition initalization           :        0.001 s           0.003 s
          | Grid partitioning                          :        0.434 s           0.437 s
          | Preloading free-atom quantities on grid    :        0.013 s           0.017 s
          | Free-atom superposition energy             :        0.040 s           0.040 s
          | Total time for integrations                :       31.488 s          31.494 s
          | Total time for solution of K.-S. equations :        1.551 s           1.576 s
          | Total time for density update              :       11.537 s          11.497 s
          | Total time for mixing                      :        0.090 s           0.092 s
          | Total time for Hartree multipole update    :        0.117 s           0.123 s
          | Total time for Hartree multipole sum       :        5.127 s           5.132 s
          | Total time for total energy evaluation     :        0.005 s           0.027 s
          | Total time for scaled ZORA corrections     :        3.119 s           3.130 s

          Partial memory accounting:
          | Residual value for overall tracked memory usage across tasks :     0.000000 MB (should be 0.000000 MB)
          | Peak values for overall tracked memory usage (after allocating zora_vector2):
          |   Minimum:       19.157 MB (on task 42)
          |   Maximum:       22.956 MB (on task 28)
          |   Average:       21.243 MB
          | Largest tracked array allocation (hamiltonian_shell):
          |   Minimum:        4.842 MB (on task  1)
          |   Maximum:        4.842 MB (on task  1)
          |   Average:        4.842 MB
          Note:  These values currently only include a subset of arrays which are explicitly tracked.
          The "true" memory usage will be greater.

          Have a nice day.
------------------------------------------------------------
