  MPI-parallelism will be employed.
------------------------------------------------------------
          Invoking FHI-aims ...
          Version 180607
          Git rev. (modified): 6724847 Fix JSON memory corruption in scf_solver
          Compiled on 2018/06/27 at 16:00:31 on host coe.psc.edu.

          When using FHI-aims, please cite the following reference:

          Volker Blum, Ralf Gehrke, Felix Hanke, Paula Havu,
          Ville Havu, Xinguo Ren, Karsten Reuter, and Matthias Scheffler,
          'Ab Initio Molecular Simulations with Numeric Atom-Centered Orbitals',
          Computer Physics Communications 180, 2175-2196 (2009)

          For any questions about FHI-aims, please visit the aimsclub website
          with its forums and wiki. Contributions to both the forums and the
          wiki are warmly encouraged - they are for you, and everyone is welcome there.

------------------------------------------------------------



  Date     :  20210620, Time     :  174221.647
  Time zero on CPU 1             :   0.355678000000000E+00  s.
  Internal wall clock time zero  :           393442941.647  s.

  FHI-aims created a unique identifier for this run for later identification
  aims_uuid : 3718E81E-45D0-4596-A601-2A10B544E24F

  Using       56 parallel tasks.
  Task        0 on host d021 reporting.
  Task        1 on host d021 reporting.
  Task        2 on host d021 reporting.
  Task        3 on host d021 reporting.
  Task        4 on host d021 reporting.
  Task        5 on host d021 reporting.
  Task        6 on host d021 reporting.
  Task        7 on host d021 reporting.
  Task        8 on host d021 reporting.
  Task        9 on host d021 reporting.
  Task       10 on host d021 reporting.
  Task       11 on host d021 reporting.
  Task       12 on host d021 reporting.
  Task       13 on host d021 reporting.
  Task       14 on host d021 reporting.
  Task       15 on host d021 reporting.
  Task       16 on host d021 reporting.
  Task       17 on host d021 reporting.
  Task       18 on host d021 reporting.
  Task       19 on host d021 reporting.
  Task       20 on host d021 reporting.
  Task       21 on host d021 reporting.
  Task       22 on host d021 reporting.
  Task       23 on host d021 reporting.
  Task       24 on host d021 reporting.
  Task       25 on host d021 reporting.
  Task       26 on host d021 reporting.
  Task       27 on host d021 reporting.
  Task       28 on host d021 reporting.
  Task       29 on host d021 reporting.
  Task       30 on host d021 reporting.
  Task       31 on host d021 reporting.
  Task       32 on host d021 reporting.
  Task       33 on host d021 reporting.
  Task       34 on host d021 reporting.
  Task       35 on host d021 reporting.
  Task       36 on host d021 reporting.
  Task       37 on host d021 reporting.
  Task       38 on host d021 reporting.
  Task       39 on host d021 reporting.
  Task       40 on host d021 reporting.
  Task       41 on host d021 reporting.
  Task       42 on host d021 reporting.
  Task       43 on host d021 reporting.
  Task       44 on host d021 reporting.
  Task       45 on host d021 reporting.
  Task       46 on host d021 reporting.
  Task       47 on host d021 reporting.
  Task       48 on host d021 reporting.
  Task       49 on host d021 reporting.
  Task       50 on host d021 reporting.
  Task       51 on host d021 reporting.
  Task       52 on host d021 reporting.
  Task       53 on host d021 reporting.
  Task       54 on host d021 reporting.
  Task       55 on host d021 reporting.

  Performing system and environment tests:
  *** Environment variable OMP_NUM_THREADS is not set
  *** For performance reasons you might want to set it to 1
  | Stacksize not measured: no C compiler
  | Checking for scalapack...
  | Testing pdtran()...
  | All pdtran() tests passed.

  Obtaining array dimensions for all initial allocations:
  
  -----------------------------------------------------------------------
  Parsing control.in (first pass over file, find array dimensions only).
  The contents of control.in will be repeated verbatim below
  unless switched off by setting 'verbatim_writeout .false.' .
  in the first line of control.in .
  -----------------------------------------------------------------------
  
  #===============================================================================
  # FHI-aims file: ./Runs/es/control.in
  # Created using the Atomic Simulation Environment (ASE)
  # Mon Jan 13 16:04:38 2020
  #===============================================================================
  xc                                 pbe
  relativistic                       zora scalar 1e-12
  occupation_type                    gaussian 0.0001
  load_balancing                     .true.
  KS_method                          scalapack_fast
  mixer                              pulay
  n_max_pulay                        5
  charge_mix_param                   0.4
  sc_accuracy_etot                   1e-6
  sc_accuracy_eev                    1e-4
  sc_accuracy_rho                    1e-6
  sc_iter_limit                      100
  prodbas_threshold                  1e-4
  basis_threshold                    1e-5
  override_illconditioning           .true.
  use_logsbt                         .true.
  spin                               none
  charge                             0
  #===============================================================================
  
  ################################################################################
  #
  #  FHI-aims code project
  # Volker Blum, Fritz Haber Institute Berlin, 2009
  #
  #  Suggested "tight" defaults for H atom (to be pasted into control.in file)
  #
  ################################################################################
    species        H
  #     global species definitions
      nucleus             1
      mass                1.00794
  #
      l_hartree           6
  #
      cut_pot             4.0  2.0  1.0
      basis_dep_cutoff    1e-4
  #
      radial_base         24 7.0
      radial_multiplier   2
      angular_grids       specified
        division   0.1930   50
        division   0.3175  110
        division   0.4293  194
        division   0.5066  302
        division   0.5626  434
  #      division   0.5922  590
  #      division   0.6227  974
  #      division   0.6868 1202
  #      outer_grid  770
        outer_grid  434
  ################################################################################
  #
  #  Definition of "minimal" basis
  #
  ################################################################################
  #     valence basis states
      valence      1  s   1.
  #     ion occupancy
      ion_occ      1  s   0.5
  ################################################################################
  #
  #  Suggested additional basis functions. For production calculations,
  #  uncomment them one after another (the most important basis functions are
  #  listed first).
  #
  #  Basis constructed for dimers: 0.5 A, 0.7 A, 1.0 A, 1.5 A, 2.5 A
  #
  ################################################################################
  #  "First tier" - improvements: -1014.90 meV to -62.69 meV
       hydro 2 s 2.1
       hydro 2 p 3.5
  #  "Second tier" - improvements: -12.89 meV to -1.83 meV
       hydro 1 s 0.85
       hydro 2 p 3.7
       hydro 2 s 1.2
       hydro 3 d 7
  #  "Third tier" - improvements: -0.25 meV to -0.12 meV
  #     hydro 4 f 11.2
  #     hydro 3 p 4.8
  #     hydro 4 d 9
  #     hydro 3 s 3.2
  ################################################################################
  #
  # For methods that use the localized form of the "resolution of identity" for
  # the two-electron Coulomb operator (RI_method LVL), particularly Hartree-Fock and
  # hybrid density functional calculations, the highest accuracy can be obtained by
  # uncommenting the line beginning with "for_aux"  below, thus adding an extra g radial
  # function to the construction of the product basis set for the expansion.
  # See Ref. New J. Phys. 17, 093020 (2015) for more information, particularly Figs. 1 and 6.
  #
  ################################################################################
  #
  # for_aux hydro 5 g 6.0
  ################################################################################
  #
  #  FHI-aims code project
  # Volker Blum, Fritz Haber Institute Berlin, 2009
  #
  #  Suggested "tight" defaults for C atom (to be pasted into control.in file)
  #
  ################################################################################
    species        C
  #     global species definitions
      nucleus             6
      mass                12.0107
  #
      l_hartree           6
  #
      cut_pot             4.0  2.0  1.0
      basis_dep_cutoff    1e-4
  #
      radial_base         34 7.0
      radial_multiplier   2
      angular_grids specified
        division   0.2187   50
        division   0.4416  110
        division   0.6335  194
        division   0.7727  302
        division   0.8772  434
  #      division   0.9334  590
  #      division   0.9924  770
  #      division   1.0230  974
  #      division   1.5020 1202
  #     outer_grid  974
        outer_grid  434
  ################################################################################
  #
  #  Definition of "minimal" basis
  #
  ################################################################################
  #     valence basis states
      valence      2  s   2.
      valence      2  p   2.
  #     ion occupancy
      ion_occ      2  s   1.
      ion_occ      2  p   1.
  ################################################################################
  #
  #  Suggested additional basis functions. For production calculations,
  #  uncomment them one after another (the most important basis functions are
  #  listed first).
  #
  #  Constructed for dimers: 1.0 A, 1.25 A, 1.5 A, 2.0 A, 3.0 A
  #
  ################################################################################
  #  "First tier" - improvements: -1214.57 meV to -155.61 meV
       hydro 2 p 1.7
       hydro 3 d 6
       hydro 2 s 4.9
  #  "Second tier" - improvements: -67.75 meV to -5.23 meV
       hydro 4 f 9.8
       hydro 3 p 5.2
       hydro 3 s 4.3
       hydro 5 g 14.4
       hydro 3 d 6.2
  #  "Third tier" - improvements: -2.43 meV to -0.60 meV
  #     hydro 2 p 5.6
  #     hydro 2 s 1.4
  #     hydro 3 d 4.9
  #     hydro 4 f 11.2
  #  "Fourth tier" - improvements: -0.39 meV to -0.18 meV
  #     hydro 2 p 2.1
  #     hydro 5 g 16.4
  #     hydro 4 d 13.2
  #     hydro 3 s 13.6
  #     hydro 4 f 17.6
  #  Further basis functions - improvements: -0.08 meV and below
  #     hydro 3 s 2
  #     hydro 3 p 6
  #     hydro 4 d 20
  ################################################################################
  #
  # For methods that use the localized form of the "resolution of identity" for
  # the two-electron Coulomb operator (RI_method LVL), particularly Hartree-Fock and
  # hybrid density functional calculations, the highest accuracy can be obtained by
  # uncommenting the line beginning with "for_aux"  below, thus adding an extra g radial
  # function to the construction of the product basis set for the expansion.
  # See Ref. New J. Phys. 17, 093020 (2015) for more information, particularly Figs. 1 and 6.
  #
  ################################################################################
  #
  # for_aux hydro 5 g 6.0
  
  -----------------------------------------------------------------------
  Completed first pass over input file control.in .
  -----------------------------------------------------------------------
  
  
  -----------------------------------------------------------------------
  Parsing geometry.in (first pass over file, find array dimensions only).
  The contents of geometry.in will be repeated verbatim below
  unless switched off by setting 'verbatim_writeout .false.' .
  in the first line of geometry.in .
  -----------------------------------------------------------------------
  
  #=======================================================
  # FHI-aims file: geometry.in
  # Created using the Atomic Simulation Environment (ASE)
  # Sun Jun 20 15:47:02 2021
  #=======================================================
  atom 8.4314590000000003 18.9525340000000000 28.9693159999999992 H
  atom 8.9764260000000000 19.5582789999999989 28.2437299999999993 C
  atom 8.9771009999999993 19.1857949999999988 26.9033219999999993 C
  atom 9.6764250000000001 20.6812140000000007 28.6530759999999987 C
  atom 8.4358730000000008 18.2975870000000000 26.5813489999999994 H
  atom 9.6738309999999998 19.9310380000000009 25.9539149999999985 C
  atom 10.3832290000000000 21.4206259999999986 27.7220140000000015 C
  atom 9.6865810000000003 20.9739339999999999 29.7028129999999990 H
  atom 9.7652699999999992 19.4144849999999991 24.5511300000000006 C
  atom 10.3902819999999991 21.0479440000000011 26.3839000000000006 C
  atom 10.9418880000000005 22.3017590000000006 28.0344699999999989 H
  atom 8.7723650000000006 19.6398569999999992 23.5544820000000001 C
  atom 10.8494639999999993 18.5604660000000017 24.2924509999999998 C
  atom 10.9513839999999991 21.6343829999999997 25.6586579999999991 H
  atom 7.7233660000000004 20.5952230000000007 23.7281960000000005 C
  atom 8.8168980000000001 18.8573640000000005 22.3106200000000001 C
  atom 10.9012989999999999 17.8026899999999983 23.0770260000000000 C
  atom 11.8813700000000004 18.3424450000000014 25.2728180000000009 C
  atom 6.6879640000000000 20.6945310000000013 22.7880760000000002 C
  atom 7.7429720000000000 21.6477560000000011 24.7981140000000018 C
  atom 7.8239929999999998 19.0827360000000006 21.3139719999999997 C
  atom 9.8658970000000004 17.9019979999999990 22.1369059999999998 C
  atom 12.0037160000000007 16.8907680000000013 22.8889789999999991 C
  atom 11.8278090000000002 18.8889519999999997 26.2099569999999993 H
  atom 12.9057300000000001 17.4765489999999986 25.0434920000000005 C
  atom 5.5855470000000000 21.6064529999999984 22.9761230000000012 C
  atom 6.7397989999999997 19.9367550000000016 21.5726510000000005 C
  atom 6.9518700000000004 21.5533369999999991 25.9401550000000007 C
  atom 8.4752700000000001 22.8088559999999987 24.5986009999999986 C
  atom 7.9154320000000000 18.5661829999999988 19.9111870000000017 C
  atom 9.8462910000000008 16.8494649999999986 21.0669879999999985 C
  atom 12.0563339999999997 16.3201999999999998 21.9659440000000004 H
  atom 12.9703649999999993 16.7464990000000000 23.8315069999999984 C
  atom 13.6770499999999995 17.3259420000000013 25.7969410000000003 H
  atom 4.6188979999999997 21.7507219999999997 22.0335949999999983 C
  atom 5.5329280000000001 22.1770209999999999 23.8991579999999999 H
  atom 5.7078930000000003 20.1547759999999982 20.5922839999999994 C
  atom 6.3667040000000004 20.6521550000000005 26.1123790000000007 H
  atom 6.9217069999999996 22.5922780000000003 26.8597499999999982 C
  atom 8.4428879999999999 23.8514909999999993 25.5147559999999984 C
  atom 9.0976189999999999 22.8998339999999985 23.7087029999999999 H
  atom 7.1989809999999999 17.4492769999999986 19.4812019999999997 C
  atom 8.6121610000000004 19.3114260000000009 18.9617800000000010 C
  atom 9.1139930000000007 15.6883649999999992 21.2665010000000017 C
  atom 10.6373929999999994 16.9438840000000006 19.9249469999999995 C
  atom 13.8055529999999997 16.0672110000000004 23.6636409999999984 H
  atom 3.7837100000000001 22.4300099999999993 22.2014609999999983 H
  atom 4.6835329999999997 21.0206720000000011 20.8216099999999997 C
  atom 5.7614539999999996 19.6082700000000010 19.6551459999999985 H
  atom 6.2968060000000001 22.4971810000000012 27.7462079999999993 H
  atom 7.6595649999999997 23.7397339999999986 26.6510640000000016 C
  atom 9.0330139999999997 24.7481760000000008 25.3346209999999985 H
  atom 6.6378789999999999 16.8628380000000000 20.2064440000000012 H
  atom 7.2060339999999998 17.0765950000000011 18.1430879999999988 C
  atom 8.6128370000000007 18.9389420000000008 17.6213720000000009 C
  atom 9.1533899999999999 20.1996339999999996 19.2837530000000008 H
  atom 8.4916440000000009 15.5973869999999994 22.1563990000000004 H
  atom 9.1463739999999998 14.6457300000000004 20.3503459999999983 C
  atom 10.6675559999999994 15.9049429999999994 19.0053519999999985 C
  atom 11.2225590000000004 17.8450659999999992 19.7527240000000006 H
  atom 3.9122119999999998 21.1712789999999984 20.0681609999999999 H
  atom 7.6340279999999998 24.5494680000000010 27.3820389999999989 H
  atom 6.6473740000000001 16.1954619999999991 17.8306320000000014 H
  atom 7.9128379999999998 17.8160069999999990 17.2120260000000016 C
  atom 9.1578040000000005 19.5446869999999997 16.8957860000000011 H
  atom 8.5562480000000001 13.7490450000000006 20.5304810000000018 H
  atom 9.9296980000000001 14.7574869999999994 19.2140379999999986 C
  atom 11.2924570000000006 16.0000399999999985 18.1188940000000009 H
  atom 7.9026820000000004 17.5232869999999998 16.1622890000000012 H
  atom 9.9552350000000001 13.9477530000000005 18.4830630000000014 H
  
  -----------------------------------------------------------------------
  Completed first pass over input file geometry.in .
  -----------------------------------------------------------------------
  

  Basic array size parameters:
  | Number of species                 :        2
  | Number of atoms                   :       70
  | Max. basis fn. angular momentum   :        4
  | Max. atomic/ionic basis occupied n:        2
  | Max. number of basis fn. types    :        2
  | Max. radial fns per species/type  :        8
  | Max. logarithmic grid size        :     1277
  | Max. radial integration grid size :       69
  | Max. angular integration grid size:      434
  | Max. angular grid division number :        8
  | Radial grid for Hartree potential :     1277
  | Number of spin channels           :        1

------------------------------------------------------------
          Reading file control.in.
------------------------------------------------------------
  XC: Using PBE gradient-corrected functionals.
  Scalar relativistic treatment of kinetic energy: ZORA.
  Threshold value for ZORA:   0.100000E-11
  Occupation type: Gaussian broadening, width =   0.100000E-03 eV.
  Since 'load_balancing .true.' is present in control.in, automatically turning on 'use_local_index .true.'.
  Using load balancing for integrations.
  Kohn-Sham electronic structure solved by the ELSI library.
  Using pulay charge density mixing.
  Pulay mixing - number of memorized iterations:    5
  Charge density mixing - mixing parameter:     0.4000
  Convergence accuracy of total energy:  0.1000E-05
  Convergence accuracy of sum of eigenvalues:  0.1000E-03
  Convergence accuracy of self-consistent charge density:  0.1000E-05
  Maximum number of s.-c. iterations  :   100
  * Ignoring prodbas_threshold
  Threshold for basis singularities:  0.1000E-04
  override_illconditioning: Explicitly overriding any built-in checks for an ill-conditioned overlap matrix.
  *** WARNING: If you use this flag, you should really know what you are doing.
  *** DO NOT keep this flag set by default in all your control.in files.
  Using 1D integrations for auxiliary 2-center integrals.
  Spin treatment: No spin polarisation.
  Charge =   0.000000E+00: Neutral system requested explicitly.
 
  Reading configuration options for species H                   .
  | Found nuclear charge :   1.0000
  | Found atomic mass :    1.00794000000000      amu
  | Found l_max for Hartree potential  :   6
  | Found cutoff potl. onset [A], width [A], scale factor :    4.00000    2.00000    1.00000
  | Threshold for basis-dependent cutoff potential is   0.100000E-03
  | Found data for basic radial integration grid :    24 points, outermost radius =    7.000 A
  | Found multiplier for basic radial grid :   2
  | Found angular grid specification: user-specified.
  | Specified grid contains     6 separate shells.
  | Check grid settings after all constraints further below.
  | Found free-atom valence shell :  1 s   1.000
  | No ionic wave fns used. Skipping ion_occ.
  | Found hydrogenic basis function :  2 s   2.100
  | Found hydrogenic basis function :  2 p   3.500
  | Found hydrogenic basis function :  1 s   0.850
  | Found hydrogenic basis function :  2 p   3.700
  | Found hydrogenic basis function :  2 s   1.200
  | Found hydrogenic basis function :  3 d   7.000
  Species H                   : Missing cutoff potential type.
  Defaulting to exp(1/x)/(1-x)^2 type cutoff potential.
  Species H : No 'logarithmic' tag. Using default grid for free atom:
  | Default logarithmic grid data [bohr] : 0.1000E-03 0.1000E+03 0.1012E+01
  Species H : On-site basis accuracy parameter (for Gram-Schmidt orthonormalisation) not specified.
  Using default value basis_acc =  0.1000000E-03.
  Species H                   : Using default innermost maximum threshold i_radial=  2 for radial functions.
  Species H                   : Default cutoff onset for free atom density etc. : 0.40000000E+01 AA.
  Species H                   : Basic radial grid will be enhanced according to radial_multiplier =   2, to contain    49 grid points.
 
  Reading configuration options for species C                   .
  | Found nuclear charge :   6.0000
  | Found atomic mass :    12.0107000000000      amu
  | Found l_max for Hartree potential  :   6
  | Found cutoff potl. onset [A], width [A], scale factor :    4.00000    2.00000    1.00000
  | Threshold for basis-dependent cutoff potential is   0.100000E-03
  | Found data for basic radial integration grid :    34 points, outermost radius =    7.000 A
  | Found multiplier for basic radial grid :   2
  | Found angular grid specification: user-specified.
  | Specified grid contains     6 separate shells.
  | Check grid settings after all constraints further below.
  | Found free-atom valence shell :  2 s   2.000
  | Found free-atom valence shell :  2 p   2.000
  | No ionic wave fns used. Skipping ion_occ.
  | No ionic wave fns used. Skipping ion_occ.
  | Found hydrogenic basis function :  2 p   1.700
  | Found hydrogenic basis function :  3 d   6.000
  | Found hydrogenic basis function :  2 s   4.900
  | Found hydrogenic basis function :  4 f   9.800
  | Found hydrogenic basis function :  3 p   5.200
  | Found hydrogenic basis function :  3 s   4.300
  | Found hydrogenic basis function :  5 g  14.400
  | Found hydrogenic basis function :  3 d   6.200
  Species C                   : Missing cutoff potential type.
  Defaulting to exp(1/x)/(1-x)^2 type cutoff potential.
  Species C : No 'logarithmic' tag. Using default grid for free atom:
  | Default logarithmic grid data [bohr] : 0.1000E-03 0.1000E+03 0.1012E+01
  Species C : On-site basis accuracy parameter (for Gram-Schmidt orthonormalisation) not specified.
  Using default value basis_acc =  0.1000000E-03.
  Species C                   : Using default innermost maximum threshold i_radial=  2 for radial functions.
  Species C                   : Default cutoff onset for free atom density etc. : 0.40000000E+01 AA.
  Species C                   : Basic radial grid will be enhanced according to radial_multiplier =   2, to contain    69 grid points.
 
  Finished reading input file 'control.in'. Consistency checks are next.
 
  MPI_IN_PLACE appears to work with this MPI implementation.
  | Keeping use_mpi_in_place .true. (see manual).
  Target number of points in a grid batch is not set. Defaulting to  100
  Method for grid partitioning is not set. Defaulting to parallel hash+maxmin partitioning.
  Batch size limit is not set. Defaulting to    200
  By default, will store active basis functions for each batch.
  If in need of memory, prune_basis_once .false. can be used to disable this option.
  communication_type for Hartree potential was not specified.
  Defaulting to calc_hartree .
  Pulay mixer: Number of initial linear mixing iterations not set.
  Defaulting to    0 iterations.
  Work space size for distributed Hartree potential not set.
  Defaulting to   0.200000E+03 MB.
  Algorithm-dependent basis array size parameters:
  | n_max_pulay                         :        5
  Presetting      1001 iterations before the initial mixing cycle
  is restarted anyway using the sc_init_iter criterion / keyword.
  Presetting a factor      1.000 between actual scf density residual
  and density convergence criterion sc_accuracy_rho below which sc_init_iter
  takes no effect.
  Calculation of forces was not defined in control.in. No forces will be calculated.
  Geometry relaxation not requested: no relaxation will be performed.
  No accuracy limit for integral partition fn. given. Defaulting to  0.1000E-14.
  No threshold value for u(r) in integrations given. Defaulting to  0.1000E-05.
  No accuracy for occupation numbers given. Defaulting to  0.1000E-12.
  No threshold value for occupation numbers given. Defaulting to  0.0000E+00.
  No accuracy for fermi level given. Defaulting to  0.1000E-19.
  Maximum # of iterations to find E_F not set. Defaulting to  200.
  Will not use alltoall communication since running on < 1024 CPUs.
  partition_type (choice of integration weights) for integrals was not specified.
  | Using a version of the partition function of Stratmann and coworkers ('stratmann_sparse').
  | At each grid point, the set of atoms used to build the partition table is smoothly restricted to
  | only those atoms whose free-atom density would be non-zero at that grid point.
  Partitioning for Hartree potential was not defined. Using partition_type for integrals.
  | Adjusted default value of keyword multip_moments_threshold to:       0.10000000E-11
  | This value may affect high angular momentum components of the Hartree potential in periodic systems.
  No q(lm)/r^(l+1) cutoff set for long-range Hartree potential.
  | Using default value of  0.100000E-09 .
  | Verify using the multipole_threshold keyword.
  Defaulting to new monopole extrapolation.
  Density update method: automatic selection selected.
 * Warning: use_local_index and/or load_balancing needs packed_matrix_format = index
 * Changing the default setting to packed_matrix_format = index
------------------------------------------------------------


------------------------------------------------------------
          Reading geometry description geometry.in.
------------------------------------------------------------
  Input structure read successfully.
  The structure contains       70 atoms,  and a total of        280.000 electrons.

  Input geometry:
  | No unit cell requested.
  | Atomic structure:
  |       Atom                x [A]            y [A]            z [A]
  |    1: Species H             8.43145900       18.95253400       28.96931600
  |    2: Species C             8.97642600       19.55827900       28.24373000
  |    3: Species C             8.97710100       19.18579500       26.90332200
  |    4: Species C             9.67642500       20.68121400       28.65307600
  |    5: Species H             8.43587300       18.29758700       26.58134900
  |    6: Species C             9.67383100       19.93103800       25.95391500
  |    7: Species C            10.38322900       21.42062600       27.72201400
  |    8: Species H             9.68658100       20.97393400       29.70281300
  |    9: Species C             9.76527000       19.41448500       24.55113000
  |   10: Species C            10.39028200       21.04794400       26.38390000
  |   11: Species H            10.94188800       22.30175900       28.03447000
  |   12: Species C             8.77236500       19.63985700       23.55448200
  |   13: Species C            10.84946400       18.56046600       24.29245100
  |   14: Species H            10.95138400       21.63438300       25.65865800
  |   15: Species C             7.72336600       20.59522300       23.72819600
  |   16: Species C             8.81689800       18.85736400       22.31062000
  |   17: Species C            10.90129900       17.80269000       23.07702600
  |   18: Species C            11.88137000       18.34244500       25.27281800
  |   19: Species C             6.68796400       20.69453100       22.78807600
  |   20: Species C             7.74297200       21.64775600       24.79811400
  |   21: Species C             7.82399300       19.08273600       21.31397200
  |   22: Species C             9.86589700       17.90199800       22.13690600
  |   23: Species C            12.00371600       16.89076800       22.88897900
  |   24: Species H            11.82780900       18.88895200       26.20995700
  |   25: Species C            12.90573000       17.47654900       25.04349200
  |   26: Species C             5.58554700       21.60645300       22.97612300
  |   27: Species C             6.73979900       19.93675500       21.57265100
  |   28: Species C             6.95187000       21.55333700       25.94015500
  |   29: Species C             8.47527000       22.80885600       24.59860100
  |   30: Species C             7.91543200       18.56618300       19.91118700
  |   31: Species C             9.84629100       16.84946500       21.06698800
  |   32: Species H            12.05633400       16.32020000       21.96594400
  |   33: Species C            12.97036500       16.74649900       23.83150700
  |   34: Species H            13.67705000       17.32594200       25.79694100
  |   35: Species C             4.61889800       21.75072200       22.03359500
  |   36: Species H             5.53292800       22.17702100       23.89915800
  |   37: Species C             5.70789300       20.15477600       20.59228400
  |   38: Species H             6.36670400       20.65215500       26.11237900
  |   39: Species C             6.92170700       22.59227800       26.85975000
  |   40: Species C             8.44288800       23.85149100       25.51475600
  |   41: Species H             9.09761900       22.89983400       23.70870300
  |   42: Species C             7.19898100       17.44927700       19.48120200
  |   43: Species C             8.61216100       19.31142600       18.96178000
  |   44: Species C             9.11399300       15.68836500       21.26650100
  |   45: Species C            10.63739300       16.94388400       19.92494700
  |   46: Species H            13.80555300       16.06721100       23.66364100
  |   47: Species H             3.78371000       22.43001000       22.20146100
  |   48: Species C             4.68353300       21.02067200       20.82161000
  |   49: Species H             5.76145400       19.60827000       19.65514600
  |   50: Species H             6.29680600       22.49718100       27.74620800
  |   51: Species C             7.65956500       23.73973400       26.65106400
  |   52: Species H             9.03301400       24.74817600       25.33462100
  |   53: Species H             6.63787900       16.86283800       20.20644400
  |   54: Species C             7.20603400       17.07659500       18.14308800
  |   55: Species C             8.61283700       18.93894200       17.62137200
  |   56: Species H             9.15339000       20.19963400       19.28375300
  |   57: Species H             8.49164400       15.59738700       22.15639900
  |   58: Species C             9.14637400       14.64573000       20.35034600
  |   59: Species C            10.66755600       15.90494300       19.00535200
  |   60: Species H            11.22255900       17.84506600       19.75272400
  |   61: Species H             3.91221200       21.17127900       20.06816100
  |   62: Species H             7.63402800       24.54946800       27.38203900
  |   63: Species H             6.64737400       16.19546200       17.83063200
  |   64: Species C             7.91283800       17.81600700       17.21202600
  |   65: Species H             9.15780400       19.54468700       16.89578600
  |   66: Species H             8.55624800       13.74904500       20.53048100
  |   67: Species C             9.92969800       14.75748700       19.21403800
  |   68: Species H            11.29245700       16.00004000       18.11889400
  |   69: Species H             7.90268200       17.52328700       16.16228900
  |   70: Species H             9.95523500       13.94775300       18.48306300
  |

  | The smallest distance between any two atoms is         1.08616998 AA.
  |
  | The first atom of this pair is atom number                     37 .
  | The second atom of this pair is atom number                    49 .

  Number of empty states per atom not set in control.in - providing a guess from actual geometry.
  | Total number of empty states used during s.c.f. cycle:      168
  If you use a very high smearing, use empty_states (per atom!) in control.in to increase this value.

  Structure-dependent array size parameters: 
  | Maximum number of distinct radial functions  :       18
  | Maximum number of basis functions            :     2058
  | Number of Kohn-Sham states (occupied + empty):      308
------------------------------------------------------------

------------------------------------------------------------
          Preparing all fixed parts of the calculation.
------------------------------------------------------------
  Determining machine precision:
    2.225073858507201E-308
  Setting up grids for atomic and cluster calculations.

  Creating wave function, potential, and density for free atoms.

  Species: H

  List of occupied orbitals and eigenvalues:
    n    l              occ      energy [Ha]    energy [eV]
    1    0           1.0000        -0.238386        -6.4868


  Species: C

  List of occupied orbitals and eigenvalues:
    n    l              occ      energy [Ha]    energy [eV]
    1    0           2.0000       -10.049212      -273.4530
    2    0           2.0000        -0.504761       -13.7352
    2    1           2.0000        -0.193631        -5.2690

  Creating fixed part of basis set: Ionic, confined, hydrogenic.
 
  H                    hydrogenic:
 
  List of hydrogenic basis orbitals: 
    n    l      effective z      eigenvalue [eV]  inner max. [A]     outer max. [A]     outer radius [A]   
    2    0         2.100000       -14.9965           0.193243           1.317208           5.373006
    2    1         3.500000       -41.6672           0.602369           0.602369           4.056063
    1    0         0.850000        -9.8292           0.624871           0.624871           5.373006
    2    1         3.700000       -46.5653           0.573622           0.573622           3.910002
    2    0         1.200000        -4.5995           0.334980           2.228188           5.505995
    3    2         7.000000       -74.0753           0.680699           0.680699           3.769201
 
 
  C                    hydrogenic:
 
  List of hydrogenic basis orbitals: 
    n    l      effective z      eigenvalue [eV]  inner max. [A]     outer max. [A]     outer radius [A]   
    2    1         1.700000        -9.8152           1.245706           1.245706           5.401630
    3    2         6.000000       -54.4226           0.792453           0.792453           4.178599
    2    0         4.900000       -81.6681           0.082559           0.562749           3.353238
    4    3         9.800000       -81.6681           0.863254           0.863254           4.028125
    3    1         5.200000       -40.8774           0.305389           1.215618           4.898362
    3    0         4.300000       -27.9508           0.091041           1.610311           5.401630
    5    4        14.400000      -112.8510           0.917666           0.917666           3.883070
    3    2         6.200000       -58.1113           0.763917           0.763917           4.077671
 

  Adding cutoff potential to free-atom effective potential.
  Creating atomic-like basis functions for current effective potential.

  Species H                   :

  List of atomic basis orbitals and eigenvalues:
    n    l      energy [Ha]    energy [eV]    outer radius [A]
    1    0        -0.238386        -6.4868       5.373006


  Species C                   :

  List of atomic basis orbitals and eigenvalues:
    n    l      energy [Ha]    energy [eV]    outer radius [A]
    1    0       -10.049212      -273.4530       1.934409
    2    0        -0.504761       -13.7352       5.271162
    2    1        -0.193631        -5.2690       5.401630

  Assembling full basis from fixed parts.
  | Species H :   atomic orbital   1 s accepted.
  | Species H :    hydro orbital   2 s accepted.
  | Species H :    hydro orbital   1 s accepted.
  | Species H :    hydro orbital   2 s accepted.
  | Species H :    hydro orbital   2 p accepted.
  | Species H :    hydro orbital   2 p accepted.
  | Species H :    hydro orbital   3 d accepted.
  | Species C :   atomic orbital   1 s accepted.
  | Species C :    hydro orbital   2 s accepted.
  | Species C :   atomic orbital   2 s accepted.
  | Species C :    hydro orbital   3 s accepted.
  | Species C :    hydro orbital   3 p accepted.
  | Species C :   atomic orbital   2 p accepted.
  | Species C :    hydro orbital   2 p accepted.
  | Species C :    hydro orbital   3 d accepted.
  | Species C :    hydro orbital   3 d accepted.
  | Species C :    hydro orbital   4 f accepted.
  | Species C :    hydro orbital   5 g accepted.
 
  Basis size parameters after reduction:
  | Total number of radial functions:       18
  | Total number of basis functions :     2058
 
  Per-task memory consumption for arrays in subroutine allocate_ext:
  |           4.461216MB.
  Testing on-site integration grid accuracy.
  |  Species  Function  <phi|h_atom|phi> (log., in eV)  <phi|h_atom|phi> (rad., in eV)
           1        1                 -6.4870767962                 -6.4871688290
           1        2                 13.5032046589                 13.5028982997
           1        3                 32.8195184817                 32.8119941656
           1        4                 33.8513856511                 33.7670005767 ***
           1        5                 28.8544614965                 28.8544615203
           1        6                 59.6326952547                 59.6327656460
           1        7                 60.2719308513                 60.2719305949
           2        8               -273.4529726040               -273.4529710464
           2        9                -10.7721037319                -10.7721022101
           2       10                 17.6044132601                 17.6044162063
           2       11                 53.7706460658                 53.7706913770
           2       12                 15.0973290362                 15.0973256030
           2       13                  3.8545134692                  3.8545724687
           2       14                 12.1156992592                 12.1182024431
           2       15                 29.4352039302                 29.4352041816
           2       16                 54.8741144708                 54.8740268729
           2       17                 59.3556032049                 59.3556031382
           2       18                 93.4551837154                 93.4551838009
 * Note: Onsite integrals marked "***" above are less accurate than
 * onsite_accuracy_threshold =    0.03000 eV. Usually, this is harmless.
 * When in doubt, tighten the "radial" and/or "radial_multiplier" flags to check.

  Preparing densities etc. for the partition functions (integrals / Hartree potential).

  Preparations completed.
  max(cpu_time)          :      0.203 s.
  Wall clock time (cpu1) :      0.209 s.
------------------------------------------------------------

------------------------------------------------------------
          Begin self-consistency loop: Initialization.

          Date     :  20210620, Time     :  174222.028
------------------------------------------------------------

  Initializing index lists of integration centers etc. from given atomic structure:
  | Number of centers in hartree potential         :        70
  | Number of centers in hartree multipole         :        70
  | Number of centers in electron density summation:        70
  | Number of centers in basis integrals           :        70
  | Number of centers in integrals                 :        70
  | Number of centers in hamiltonian               :        70
  * Using 56 tasks for Scalapack Eigenvalue solver.
  Detailed listing of tasks and assigned k-points:
  (for non-periodic systems, the "k-point" denotes an internal label only)
   Task     0 k-point     1 on d021
   Task     1 k-point     1 on d021
   Task     2 k-point     1 on d021
   Task     3 k-point     1 on d021
   Task     4 k-point     1 on d021
   Task     5 k-point     1 on d021
   Task     6 k-point     1 on d021
   Task     7 k-point     1 on d021
   Task     8 k-point     1 on d021
   Task     9 k-point     1 on d021
   Task    10 k-point     1 on d021
   Task    11 k-point     1 on d021
   Task    12 k-point     1 on d021
   Task    13 k-point     1 on d021
   Task    14 k-point     1 on d021
   Task    15 k-point     1 on d021
   Task    16 k-point     1 on d021
   Task    17 k-point     1 on d021
   Task    18 k-point     1 on d021
   Task    19 k-point     1 on d021
   Task    20 k-point     1 on d021
   Task    21 k-point     1 on d021
   Task    22 k-point     1 on d021
   Task    23 k-point     1 on d021
   Task    24 k-point     1 on d021
   Task    25 k-point     1 on d021
   Task    26 k-point     1 on d021
   Task    27 k-point     1 on d021
   Task    28 k-point     1 on d021
   Task    29 k-point     1 on d021
   Task    30 k-point     1 on d021
   Task    31 k-point     1 on d021
   Task    32 k-point     1 on d021
   Task    33 k-point     1 on d021
   Task    34 k-point     1 on d021
   Task    35 k-point     1 on d021
   Task    36 k-point     1 on d021
   Task    37 k-point     1 on d021
   Task    38 k-point     1 on d021
   Task    39 k-point     1 on d021
   Task    40 k-point     1 on d021
   Task    41 k-point     1 on d021
   Task    42 k-point     1 on d021
   Task    43 k-point     1 on d021
   Task    44 k-point     1 on d021
   Task    45 k-point     1 on d021
   Task    46 k-point     1 on d021
   Task    47 k-point     1 on d021
   Task    48 k-point     1 on d021
   Task    49 k-point     1 on d021
   Task    50 k-point     1 on d021
   Task    51 k-point     1 on d021
   Task    52 k-point     1 on d021
   Task    53 k-point     1 on d021
   Task    54 k-point     1 on d021
   Task    55 k-point     1 on d021
  Tasks:    56 split into      8 X      7 BLACS grid
  Calculating block size based on n_basis =         2058 max_nprow =            8 max_npcol =            7
  ScaLAPACK block size set to:           16
  Allocating        0.647 MB for ovlp
  Allocating        0.647 MB for ham
  Allocating        0.647 MB for eigenvec
  Required Scalapack workspace - INTEGER:            1 REAL:             1
  Partitioning the integration grid into batches with parallel hashing+maxmin method.
  | Number of batches:    10836
  | Maximal batch size:     191
  | Minimal batch size:       1
  | Average batch size:     107.408
  | Standard deviation of batch sizes:      25.514

  Integration load balanced across     56 MPI tasks.
  Work distribution over tasks is as follows:
  Task      0 has      20842 integration points.
  Task      1 has      20902 integration points.
  Task      2 has      20708 integration points.
  Task      3 has      20823 integration points.
  Task      4 has      20769 integration points.
  Task      5 has      20800 integration points.
  Task      6 has      20722 integration points.
  Task      7 has      20828 integration points.
  Task      8 has      20788 integration points.
  Task      9 has      20732 integration points.
  Task     10 has      20880 integration points.
  Task     11 has      20694 integration points.
  Task     12 has      20805 integration points.
  Task     13 has      20740 integration points.
  Task     14 has      20846 integration points.
  Task     15 has      20901 integration points.
  Task     16 has      20706 integration points.
  Task     17 has      20912 integration points.
  Task     18 has      20650 integration points.
  Task     19 has      20770 integration points.
  Task     20 has      20725 integration points.
  Task     21 has      20878 integration points.
  Task     22 has      20799 integration points.
  Task     23 has      20753 integration points.
  Task     24 has      20853 integration points.
  Task     25 has      20684 integration points.
  Task     26 has      20730 integration points.
  Task     27 has      20726 integration points.
  Task     28 has      20835 integration points.
  Task     29 has      20828 integration points.
  Task     30 has      20733 integration points.
  Task     31 has      20895 integration points.
  Task     32 has      20770 integration points.
  Task     33 has      20762 integration points.
  Task     34 has      20755 integration points.
  Task     35 has      20828 integration points.
  Task     36 has      20888 integration points.
  Task     37 has      20713 integration points.
  Task     38 has      20804 integration points.
  Task     39 has      20731 integration points.
  Task     40 has      20832 integration points.
  Task     41 has      20622 integration points.
  Task     42 has      20812 integration points.
  Task     43 has      20862 integration points.
  Task     44 has      20742 integration points.
  Task     45 has      20897 integration points.
  Task     46 has      20644 integration points.
  Task     47 has      20811 integration points.
  Task     48 has      20691 integration points.
  Task     49 has      20826 integration points.
  Task     50 has      20802 integration points.
  Task     51 has      20787 integration points.
  Task     52 has      20872 integration points.
  Task     53 has      20739 integration points.
  Task     54 has      20741 integration points.
  Task     55 has      20688 integration points.
  Initializing partition tables, free-atom densities, potentials, etc. across the integration grid (initialize_grid_storage).
  | initialize_grid_storage: Actual outermost partition radius vs. multipole_radius_free
  | (-- VB: in principle, multipole_radius_free should be larger, hence this output)
  | Species        1: Confinement radius =              6.000000000000000 AA, multipole_radius_free =              6.071692442739658 AA.
  | Species        1: outer_partition_radius set to              6.071692442739658 AA .
  | Species        2: Confinement radius =              6.000000000000000 AA, multipole_radius_free =              6.029870734432609 AA.
  | Species        2: outer_partition_radius set to              6.029870734432609 AA .
  | The sparse table of interatomic distances needs     58.2440 kbyte instead of    39.2000 kbyte of memory.
  | Using the partition_type stratmann_smoother will reduce your memory usage.
  | Net number of integration points:  1163876
  | of which are non-zero points    :   906450
  Renormalizing the initial density to the exact electron count on the 3D integration grid.
  | Initial density: Formal number of electrons (from input files) :     280.0000000000
  | Integrated number of electrons on 3D grid     :     279.9994840488
  | Charge integration error                      :      -0.0005159512
  | Normalization factor for density and gradient :       1.0000018427
  Obtaining max. number of non-zero basis functions in each batch (get_n_compute_maxes).
  | Maximal number of non-zero basis functions:     1227
  Selecting the method for density update.
  Loop over occupied states selected for charge density update.
  Hamiltonian matrix size:
  | Size of matrix non-packed:               2118711
  | Size of matrix packed:         1813548
  Allocating        5.071 MB for KS_eigenvector
  use_local_index: Max. local matrix size =      1482052
  Task:     0 matrix size:     398492
  Task:     1 matrix size:     376103
  Task:     2 matrix size:     465757
  Task:     3 matrix size:     623601
  Task:     4 matrix size:     865559
  Task:     5 matrix size:     966803
  Task:     6 matrix size:    1200501
  Task:     7 matrix size:     271446
  Task:     8 matrix size:     562247
  Task:     9 matrix size:     732662
  Task:    10 matrix size:     460580
  Task:    11 matrix size:     322443
  Task:    12 matrix size:    1106748
  Task:    13 matrix size:     935790
  Task:    14 matrix size:     454308
  Task:    15 matrix size:     299071
  Task:    16 matrix size:     433132
  Task:    17 matrix size:     538418
  Task:    18 matrix size:     869991
  Task:    19 matrix size:     597605
  Task:    20 matrix size:     708421
  Task:    21 matrix size:     583629
  Task:    22 matrix size:     633449
  Task:    23 matrix size:     623535
  Task:    24 matrix size:    1118025
  Task:    25 matrix size:     899397
  Task:    26 matrix size:    1482052
  Task:    27 matrix size:    1348323
  Task:    28 matrix size:    1400657
  Task:    29 matrix size:    1058701
  Task:    30 matrix size:    1307958
  Task:    31 matrix size:     917631
  Task:    32 matrix size:     375950
  Task:    33 matrix size:     646266
  Task:    34 matrix size:     728128
  Task:    35 matrix size:     504332
  Task:    36 matrix size:     872956
  Task:    37 matrix size:     573887
  Task:    38 matrix size:     492379
  Task:    39 matrix size:     336780
  Task:    40 matrix size:     537239
  Task:    41 matrix size:     405303
  Task:    42 matrix size:    1172391
  Task:    43 matrix size:     432883
  Task:    44 matrix size:     664526
  Task:    45 matrix size:     634630
  Task:    46 matrix size:     832146
  Task:    47 matrix size:     640297
  Task:    48 matrix size:     334082
  Task:    49 matrix size:    1183269
  Task:    50 matrix size:     995051
  Task:    51 matrix size:     894516
  Task:    52 matrix size:     538965
  Task:    53 matrix size:     538660
  Task:    54 matrix size:     431693
  Task:    55 matrix size:     416480
  Integrating Hamiltonian matrix: batch-based integration.
  Time summed over all CPUs for integration: real work      290.166 s, elapsed      566.306 s
  Time get_set_sparse_local_matrix_scalapack:     0.027987 s
  Start compute_balanced_batch_distribution
  Done load balancing, time needed:      0.013 s
  Integrating overlap matrix with loadbalancing
  Time summed over all CPUs for integration: real work       84.013 s, elapsed      100.124 s
  Time get_set_full_local_matrix_scalapack:     0.032920 s

  Updating Kohn-Sham eigenvalues and eigenvectors using ELSI and the ELPA eigensolver.
  Overlap matrix is not singular
  | Lowest and highest eigenvalues :  0.14E+02,  0.89E-04
  Finished singularity check of overlap matrix
  | Time :     0.160 s
  Finished Cholesky decomposition
  | Time :     0.035 s
  Finished transformation to standard eigenproblem
  | Time :     0.045 s
  Starting ELPA eigensolver
  Finished solving standard eigenproblem
  | Time :     0.174 s
  Finished back-transformation of eigenvectors
  | Time :     0.008 s

  Obtaining occupation numbers and chemical potential using ELSI.
  | Chemical potential (Fermi level):    -7.92727774 eV
  Writing Kohn-Sham eigenvalues.

  State    Occupation    Eigenvalue [Ha]    Eigenvalue [eV]
      1       2.00000         -10.173316         -276.83001
      2       2.00000         -10.173316         -276.83001
      3       2.00000         -10.172866         -276.81776
      4       2.00000         -10.172866         -276.81775
      5       2.00000         -10.172773         -276.81525
      6       2.00000         -10.172773         -276.81525
      7       2.00000         -10.172319         -276.80289
      8       2.00000         -10.172319         -276.80289
      9       2.00000         -10.172220         -276.80018
     10       2.00000         -10.172220         -276.80018
     11       2.00000         -10.172182         -276.79915
     12       2.00000         -10.172182         -276.79915
     13       2.00000         -10.171905         -276.79161
     14       2.00000         -10.171905         -276.79160
     15       2.00000         -10.171701         -276.78606
     16       2.00000         -10.171701         -276.78606
     17       2.00000         -10.171598         -276.78327
     18       2.00000         -10.171598         -276.78327
     19       2.00000         -10.171314         -276.77554
     20       2.00000         -10.171314         -276.77554
     21       2.00000         -10.170981         -276.76648
     22       2.00000         -10.170981         -276.76648
     23       2.00000         -10.170611         -276.75641
     24       2.00000         -10.170611         -276.75641
     25       2.00000         -10.169469         -276.72534
     26       2.00000         -10.169469         -276.72534
     27       2.00000         -10.169399         -276.72341
     28       2.00000         -10.169398         -276.72341
     29       2.00000         -10.165848         -276.62679
     30       2.00000         -10.165848         -276.62679
     31       2.00000         -10.164880         -276.60047
     32       2.00000         -10.164880         -276.60047
     33       2.00000         -10.163770         -276.57024
     34       2.00000         -10.163769         -276.57024
     35       2.00000         -10.163456         -276.56171
     36       2.00000         -10.163456         -276.56171
     37       2.00000         -10.157988         -276.41293
     38       2.00000         -10.157983         -276.41279
     39       2.00000         -10.157376         -276.39628
     40       2.00000         -10.157354         -276.39566
     41       2.00000         -10.156991         -276.38578
     42       2.00000         -10.156814         -276.38096
     43       2.00000          -1.015708          -27.63883
     44       2.00000          -1.003746          -27.31332
     45       2.00000          -1.002283          -27.27349
     46       2.00000          -0.997316          -27.13835
     47       2.00000          -0.992954          -27.01966
     48       2.00000          -0.988925          -26.91003
     49       2.00000          -0.962478          -26.19036
     50       2.00000          -0.936258          -25.47688
     51       2.00000          -0.931297          -25.34187
     52       2.00000          -0.919322          -25.01603
     53       2.00000          -0.893827          -24.32226
     54       2.00000          -0.887251          -24.14333
     55       2.00000          -0.887237          -24.14294
     56       2.00000          -0.885289          -24.08994
     57       2.00000          -0.884596          -24.07108
     58       2.00000          -0.884360          -24.06466
     59       2.00000          -0.883005          -24.02780
     60       2.00000          -0.880370          -23.95610
     61       2.00000          -0.870745          -23.69417
     62       2.00000          -0.858640          -23.36479
     63       2.00000          -0.830796          -22.60711
     64       2.00000          -0.797158          -21.69178
     65       2.00000          -0.773072          -21.03636
     66       2.00000          -0.768380          -20.90867
     67       2.00000          -0.758058          -20.62780
     68       2.00000          -0.751275          -20.44322
     69       2.00000          -0.750955          -20.43452
     70       2.00000          -0.747800          -20.34867
     71       2.00000          -0.747445          -20.33900
     72       2.00000          -0.744624          -20.26226
     73       2.00000          -0.743709          -20.23735
     74       2.00000          -0.741560          -20.17887
     75       2.00000          -0.714896          -19.45331
     76       2.00000          -0.706192          -19.21647
     77       2.00000          -0.699877          -19.04461
     78       2.00000          -0.672223          -18.29212
     79       2.00000          -0.669694          -18.22330
     80       2.00000          -0.661598          -18.00299
     81       2.00000          -0.653542          -17.78378
     82       2.00000          -0.648307          -17.64134
     83       2.00000          -0.636702          -17.32554
     84       2.00000          -0.635429          -17.29090
     85       2.00000          -0.631913          -17.19522
     86       2.00000          -0.631857          -17.19371
     87       2.00000          -0.629619          -17.13279
     88       2.00000          -0.629369          -17.12600
     89       2.00000          -0.623673          -16.97100
     90       2.00000          -0.623433          -16.96448
     91       2.00000          -0.597962          -16.27138
     92       2.00000          -0.590986          -16.08155
     93       2.00000          -0.586761          -15.96659
     94       2.00000          -0.580941          -15.80821
     95       2.00000          -0.577291          -15.70888
     96       2.00000          -0.575607          -15.66306
     97       2.00000          -0.574062          -15.62102
     98       2.00000          -0.573560          -15.60735
     99       2.00000          -0.570933          -15.53588
    100       2.00000          -0.569604          -15.49973
    101       2.00000          -0.567798          -15.45058
    102       2.00000          -0.565871          -15.39812
    103       2.00000          -0.565523          -15.38866
    104       2.00000          -0.564321          -15.35597
    105       2.00000          -0.564289          -15.35507
    106       2.00000          -0.563995          -15.34707
    107       2.00000          -0.541478          -14.73437
    108       2.00000          -0.523448          -14.24376
    109       2.00000          -0.521484          -14.19030
    110       2.00000          -0.517905          -14.09290
    111       2.00000          -0.513975          -13.98598
    112       2.00000          -0.513085          -13.96175
    113       2.00000          -0.510042          -13.87894
    114       2.00000          -0.507443          -13.80823
    115       2.00000          -0.507058          -13.79775
    116       2.00000          -0.506448          -13.78116
    117       2.00000          -0.505020          -13.74229
    118       2.00000          -0.498025          -13.55195
    119       2.00000          -0.496486          -13.51008
    120       2.00000          -0.495861          -13.49307
    121       2.00000          -0.494986          -13.46926
    122       2.00000          -0.492344          -13.39735
    123       2.00000          -0.487817          -13.27418
    124       2.00000          -0.485644          -13.21505
    125       2.00000          -0.476324          -12.96144
    126       2.00000          -0.469912          -12.78696
    127       2.00000          -0.432109          -11.75829
    128       2.00000          -0.430641          -11.71833
    129       2.00000          -0.422482          -11.49632
    130       2.00000          -0.415601          -11.30907
    131       2.00000          -0.413057          -11.23986
    132       2.00000          -0.411205          -11.18946
    133       2.00000          -0.411123          -11.18722
    134       2.00000          -0.398067          -10.83195
    135       2.00000          -0.397356          -10.81260
    136       2.00000          -0.392899          -10.69133
    137       2.00000          -0.388788          -10.57945
    138       2.00000          -0.386366          -10.51355
    139       2.00000          -0.381117          -10.37072
    140       2.00000          -0.336939           -9.16858
    141       0.00000          -0.276191           -7.51553
    142       0.00000          -0.225658           -6.14047
    143       0.00000          -0.225530           -6.13698
    144       0.00000          -0.223752           -6.08860
    145       0.00000          -0.221604           -6.03016
    146       0.00000          -0.217334           -5.91396
    147       0.00000          -0.211361           -5.75144
    148       0.00000          -0.206278           -5.61310
    149       0.00000          -0.204954           -5.57709
    150       0.00000          -0.204004           -5.55122
    151       0.00000          -0.200236           -5.44871
    152       0.00000          -0.184429           -5.01857
    153       0.00000          -0.170009           -4.62617
    154       0.00000          -0.168228           -4.57773
    155       0.00000          -0.107887           -2.93576
    156       0.00000          -0.084082           -2.28800
    157       0.00000          -0.080761           -2.19762
    158       0.00000          -0.078274           -2.12995
    159       0.00000          -0.075641           -2.05831
    160       0.00000          -0.073681           -2.00496
    161       0.00000          -0.067001           -1.82320
    162       0.00000          -0.064124           -1.74491
    163       0.00000          -0.063729           -1.73415
    164       0.00000          -0.061787           -1.68132
    165       0.00000          -0.058847           -1.60131
    166       0.00000          -0.055990           -1.52356
    167       0.00000          -0.049353           -1.34296
    168       0.00000          -0.046027           -1.25247
    169       0.00000          -0.044013           -1.19767
    170       0.00000          -0.040563           -1.10377
    171       0.00000          -0.038562           -1.04932
    172       0.00000          -0.030999           -0.84353
    173       0.00000          -0.030384           -0.82680
    174       0.00000          -0.028081           -0.76413
    175       0.00000          -0.026245           -0.71417
    176       0.00000          -0.021907           -0.59611
    177       0.00000          -0.019412           -0.52823
    178       0.00000          -0.016022           -0.43599
    179       0.00000          -0.015446           -0.42031
    180       0.00000          -0.013707           -0.37299
    181       0.00000          -0.009944           -0.27059
    182       0.00000          -0.008042           -0.21883
    183       0.00000          -0.004858           -0.13220
    184       0.00000          -0.003136           -0.08534
    185       0.00000           0.001782            0.04848
    186       0.00000           0.003396            0.09241
    187       0.00000           0.004835            0.13157
    188       0.00000           0.007545            0.20532
    189       0.00000           0.009569            0.26039
    190       0.00000           0.012692            0.34538
    191       0.00000           0.014794            0.40256
    192       0.00000           0.016803            0.45724
    193       0.00000           0.018829            0.51236
    194       0.00000           0.031941            0.86916
    195       0.00000           0.032158            0.87507
    196       0.00000           0.037665            1.02491
    197       0.00000           0.039356            1.07093
    198       0.00000           0.046096            1.25434
    199       0.00000           0.047480            1.29200
    200       0.00000           0.047536            1.29351
    201       0.00000           0.049703            1.35250
    202       0.00000           0.050755            1.38111
    203       0.00000           0.053068            1.44405
    204       0.00000           0.055702            1.51572
    205       0.00000           0.055958            1.52269
    206       0.00000           0.057072            1.55301
    207       0.00000           0.057130            1.55460
    208       0.00000           0.060695            1.65159
    209       0.00000           0.064935            1.76697
    210       0.00000           0.065120            1.77202
    211       0.00000           0.068535            1.86493
    212       0.00000           0.071497            1.94554
    213       0.00000           0.071789            1.95349
    214       0.00000           0.075527            2.05520
    215       0.00000           0.075965            2.06712
    216       0.00000           0.077113            2.09834
    217       0.00000           0.079106            2.15259
    218       0.00000           0.080241            2.18346
    219       0.00000           0.082443            2.24339
    220       0.00000           0.084774            2.30682
    221       0.00000           0.085345            2.32236
    222       0.00000           0.086644            2.35770
    223       0.00000           0.088082            2.39682
    224       0.00000           0.091079            2.47839
    225       0.00000           0.091407            2.48732
    226       0.00000           0.093612            2.54731
    227       0.00000           0.099774            2.71498
    228       0.00000           0.102473            2.78844
    229       0.00000           0.103227            2.80895
    230       0.00000           0.104413            2.84123
    231       0.00000           0.105712            2.87657
    232       0.00000           0.106864            2.90791
    233       0.00000           0.111033            3.02136
    234       0.00000           0.111472            3.03329
    235       0.00000           0.111886            3.04457
    236       0.00000           0.113771            3.09586
    237       0.00000           0.114934            3.12753
    238       0.00000           0.115097            3.13195
    239       0.00000           0.116059            3.15813
    240       0.00000           0.119949            3.26399
    241       0.00000           0.120798            3.28708
    242       0.00000           0.124313            3.38274
    243       0.00000           0.128294            3.49107
    244       0.00000           0.129326            3.51913
    245       0.00000           0.129669            3.52847
    246       0.00000           0.132459            3.60439
    247       0.00000           0.133415            3.63042
    248       0.00000           0.139152            3.78652
    249       0.00000           0.140296            3.81765
    250       0.00000           0.142432            3.87577
    251       0.00000           0.142672            3.88231
    252       0.00000           0.144933            3.94383
    253       0.00000           0.148353            4.03688
    254       0.00000           0.153606            4.17983
    255       0.00000           0.155428            4.22941
    256       0.00000           0.155480            4.23082
    257       0.00000           0.157386            4.28270
    258       0.00000           0.159603            4.34302
    259       0.00000           0.161889            4.40522
    260       0.00000           0.162118            4.41146
    261       0.00000           0.165571            4.50543
    262       0.00000           0.167144            4.54823
    263       0.00000           0.167886            4.56840
    264       0.00000           0.169083            4.60099
    265       0.00000           0.171868            4.67676
    266       0.00000           0.174126            4.73820
    267       0.00000           0.175050            4.76334
    268       0.00000           0.176632            4.80641
    269       0.00000           0.181357            4.93499
    270       0.00000           0.183765            5.00050
    271       0.00000           0.185589            5.05013
    272       0.00000           0.187526            5.10283
    273       0.00000           0.189597            5.15918
    274       0.00000           0.190507            5.18397
    275       0.00000           0.190518            5.18426
    276       0.00000           0.194740            5.29916
    277       0.00000           0.196813            5.35556
    278       0.00000           0.199548            5.42997
    279       0.00000           0.200356            5.45195
    280       0.00000           0.203757            5.54451
    281       0.00000           0.205805            5.60024
    282       0.00000           0.205813            5.60046
    283       0.00000           0.207040            5.63386
    284       0.00000           0.207449            5.64498
    285       0.00000           0.213489            5.80934
    286       0.00000           0.218927            5.95730
    287       0.00000           0.219985            5.98611
    288       0.00000           0.221643            6.03122
    289       0.00000           0.223880            6.09209
    290       0.00000           0.227325            6.18582
    291       0.00000           0.230273            6.26605
    292       0.00000           0.230539            6.27330
    293       0.00000           0.235741            6.41485
    294       0.00000           0.235999            6.42187
    295       0.00000           0.238432            6.48807
    296       0.00000           0.239550            6.51848
    297       0.00000           0.239555            6.51864
    298       0.00000           0.242435            6.59698
    299       0.00000           0.245396            6.67757
    300       0.00000           0.250365            6.81278
    301       0.00000           0.255550            6.95387
    302       0.00000           0.261765            7.12299
    303       0.00000           0.266795            7.25986
    304       0.00000           0.267803            7.28728
    305       0.00000           0.269830            7.34246
    306       0.00000           0.270751            7.36750
    307       0.00000           0.270906            7.37174
    308       0.00000           0.280363            7.62908

  Highest occupied state (VBM) at     -9.16857578 eV
  | Occupation number:      2.00000000

  Lowest unoccupied state (CBM) at    -7.51553305 eV
  | Occupation number:      0.00000000

  Overall HOMO-LUMO gap:      1.65304273 eV.
  Calculating total energy contributions from superposition of free atom densities.

  Total energy components:
  | Sum of eigenvalues            :        -980.25303920 Ha      -26674.04235683 eV
  | XC energy correction          :        -232.34337447 Ha       -6322.38489886 eV
  | XC potential correction       :         298.45039515 Ha        8121.24845672 eV
  | Free-atom electrostatic energy:        -704.49164158 Ha      -19170.19293616 eV
  | Hartree energy correction     :           0.00000000 Ha           0.00000000 eV
  | Entropy correction            :           0.00000000 Ha           0.00000000 eV
  | ---------------------------
  | Total energy                  :       -1618.63766010 Ha      -44045.37173513 eV
  | Total energy, T -> 0          :       -1618.63766010 Ha      -44045.37173513 eV  <-- do not rely on this value for anything but (periodic) metals
  | Electronic free energy        :       -1618.63766010 Ha      -44045.37173513 eV

  Derived energy quantities:
  | Kinetic energy                :        1602.90855056 Ha       43617.36088774 eV
  | Electrostatic energy          :       -2989.20283619 Ha      -81340.34772401 eV
  | Energy correction for multipole
  | error in Hartree potential    :           0.00000000 Ha           0.00000000 eV
  | Sum of eigenvalues per atom                           :        -381.05774795 eV
  | Total energy (T->0) per atom                          :        -629.21959622 eV  <-- do not rely on this value for anything but (periodic) metals
  | Electronic free energy per atom                       :        -629.21959622 eV
  Initialize hartree_potential_storage
  Max. number of atoms included in rho_multipole:           70

  End scf initialization - timings             :  max(cpu_time)    wall_clock(cpu1)
  | Time for scf. initialization               :       15.534 s          15.592 s
  | Boundary condition initialization          :        0.001 s           0.003 s
  | Integration                                :       12.010 s          12.014 s
  | Solution of K.-S. eqns.                    :        0.451 s           0.468 s
  | Grid partitioning                          :        1.183 s           1.187 s
  | Preloading free-atom quantities on grid    :        0.013 s           0.016 s
  | Free-atom superposition energy             :        0.133 s           0.133 s
  | Total energy evaluation                    :        0.001 s           0.003 s

  Partial memory accounting:
  | Current value for overall tracked memory usage on task 0  :           8.606 MB
  | Peak value for overall tracked memory usage on task 0     :          40.742 MB after allocating zora_vector2
  | Largest tracked array allocation on task 0 so far         :          12.044 MB  when allocating hamiltonian_shell
  Note:  These values currently only include a subset of arrays which are explicitly tracked.
  The "true" memory usage will be greater.
------------------------------------------------------------

------------------------------------------------------------
          Begin self-consistency iteration #    1

  Date     :  20210620, Time     :  174237.623
------------------------------------------------------------
  Evaluating new KS density.
  Integration grid: deviation in total charge (<rho> - N_e) =   5.684342E-14
  Pulay mixing of updated and previous charge densities.

  Evaluating partitioned Hartree potential by multipole expansion.
  | Analytical far-field extrapolation by fixed multipoles:
  | Hartree multipole sum: apparent total charge =  -0.529312E-03
  Summing up the Hartree potential with load balancing.
  Time summed over all CPUs for potential: real work       48.937 s, elapsed       73.995 s
  | RMS charge density error from multipole expansion :   0.157237E-01

  Start compute_balanced_batch_distribution
  Done load balancing, time needed:      0.011 s
  Integrating Hamiltonian matrix: batch-based integration with load balancing
  Time summed over all CPUs for integration: real work      315.559 s, elapsed      358.788 s
  Time get_set_full_local_matrix_scalapack:     0.032753 s
  Start compute_balanced_batch_distribution
  Done load balancing, time needed:      0.011 s

  Updating Kohn-Sham eigenvalues and eigenvectors using ELSI and the ELPA eigensolver.
  Finished transformation to standard eigenproblem
  | Time :     0.048 s
  Starting ELPA eigensolver
  Finished solving standard eigenproblem
  | Time :     0.172 s
  Finished back-transformation of eigenvectors
  | Time :     0.008 s

  Obtaining occupation numbers and chemical potential using ELSI.
  | Chemical potential (Fermi level):    -5.53951111 eV
  Writing Kohn-Sham eigenvalues.

  State    Occupation    Eigenvalue [Ha]    Eigenvalue [eV]
      1       2.00000         -10.001818         -272.16331
      2       2.00000         -10.001611         -272.15767
      3       2.00000          -9.991112         -271.87199
      4       2.00000          -9.991112         -271.87199
      5       2.00000          -9.989941         -271.84013
      6       2.00000          -9.989941         -271.84012
      7       2.00000          -9.974253         -271.41323
      8       2.00000          -9.974253         -271.41323
      9       2.00000          -9.973503         -271.39281
     10       2.00000          -9.973503         -271.39281
     11       2.00000          -9.964408         -271.14534
     12       2.00000          -9.964408         -271.14533
     13       2.00000          -9.964343         -271.14358
     14       2.00000          -9.964343         -271.14357
     15       2.00000          -9.940924         -270.50630
     16       2.00000          -9.940924         -270.50630
     17       2.00000          -9.940259         -270.48820
     18       2.00000          -9.940259         -270.48820
     19       2.00000          -9.939007         -270.45414
     20       2.00000          -9.939007         -270.45414
     21       2.00000          -9.938719         -270.44631
     22       2.00000          -9.938719         -270.44630
     23       2.00000          -9.937872         -270.42325
     24       2.00000          -9.937872         -270.42325
     25       2.00000          -9.937767         -270.42040
     26       2.00000          -9.937767         -270.42040
     27       2.00000          -9.937321         -270.40826
     28       2.00000          -9.937321         -270.40826
     29       2.00000          -9.936696         -270.39125
     30       2.00000          -9.936696         -270.39125
     31       2.00000          -9.936522         -270.38651
     32       2.00000          -9.936522         -270.38651
     33       2.00000          -9.936462         -270.38490
     34       2.00000          -9.936462         -270.38490
     35       2.00000          -9.936376         -270.38255
     36       2.00000          -9.936376         -270.38255
     37       2.00000          -9.936013         -270.37267
     38       2.00000          -9.936013         -270.37267
     39       2.00000          -9.935473         -270.35798
     40       2.00000          -9.935473         -270.35798
     41       2.00000          -9.935465         -270.35775
     42       2.00000          -9.935465         -270.35775
     43       2.00000          -0.878190          -23.89677
     44       2.00000          -0.850343          -23.13900
     45       2.00000          -0.841690          -22.90355
     46       2.00000          -0.830298          -22.59356
     47       2.00000          -0.827731          -22.52370
     48       2.00000          -0.822786          -22.38913
     49       2.00000          -0.811877          -22.09231
     50       2.00000          -0.792658          -21.56932
     51       2.00000          -0.779059          -21.19927
     52       2.00000          -0.771441          -20.99197
     53       2.00000          -0.739843          -20.13215
     54       2.00000          -0.728092          -19.81239
     55       2.00000          -0.728059          -19.81149
     56       2.00000          -0.727839          -19.80551
     57       2.00000          -0.727534          -19.79721
     58       2.00000          -0.726516          -19.76952
     59       2.00000          -0.724393          -19.71174
     60       2.00000          -0.724006          -19.70119
     61       2.00000          -0.720834          -19.61490
     62       2.00000          -0.709619          -19.30970
     63       2.00000          -0.679344          -18.48589
     64       2.00000          -0.654365          -17.80618
     65       2.00000          -0.629264          -17.12314
     66       2.00000          -0.625428          -17.01877
     67       2.00000          -0.611987          -16.65301
     68       2.00000          -0.603679          -16.42695
     69       2.00000          -0.603522          -16.42267
     70       2.00000          -0.601844          -16.37702
     71       2.00000          -0.599163          -16.30405
     72       2.00000          -0.598721          -16.29204
     73       2.00000          -0.593762          -16.15708
     74       2.00000          -0.590757          -16.07531
     75       2.00000          -0.568941          -15.48168
     76       2.00000          -0.561927          -15.29081
     77       2.00000          -0.558143          -15.18784
     78       2.00000          -0.537897          -14.63692
     79       2.00000          -0.529508          -14.40863
     80       2.00000          -0.526648          -14.33082
     81       2.00000          -0.518929          -14.12077
     82       2.00000          -0.510645          -13.89536
     83       2.00000          -0.504298          -13.72264
     84       2.00000          -0.502099          -13.66280
     85       2.00000          -0.487244          -13.25858
     86       2.00000          -0.470132          -12.79295
     87       2.00000          -0.469746          -12.78245
[...]
    138       2.00000          -0.209201           -5.69264
    139       2.00000          -0.206591           -5.62161
    140       2.00000          -0.165833           -4.51256
    141       0.00000          -0.108489           -2.95215
    142       0.00000          -0.058502           -1.59192
    143       0.00000          -0.057231           -1.55733
    144       0.00000          -0.053844           -1.46517
    145       0.00000          -0.051425           -1.39935
    146       0.00000          -0.046604           -1.26815
    147       0.00000          -0.040539           -1.10311
    148       0.00000          -0.034528           -0.93956
    149       0.00000          -0.031379           -0.85387
    150       0.00000          -0.030944           -0.84202
    151       0.00000          -0.026409           -0.71862
    152       0.00000          -0.013607           -0.37026
    153       0.00000          -0.011451           -0.31160
    154       0.00000          -0.007741           -0.21065
    155       0.00000          -0.002921           -0.07947
    156       0.00000           0.001771            0.04819
    157       0.00000           0.003520            0.09580
    158       0.00000           0.007556            0.20560
    159       0.00000           0.008618            0.23451
    160       0.00000           0.010682            0.29066
    161       0.00000           0.011239            0.30583
    162       0.00000           0.014107            0.38387
    163       0.00000           0.019045            0.51823
    164       0.00000           0.025877            0.70414
    165       0.00000           0.030722            0.83600
    166       0.00000           0.032612            0.88742
    167       0.00000           0.036714            0.99905
    168       0.00000           0.037513            1.02079
    169       0.00000           0.041623            1.13263
    170       0.00000           0.042397            1.15368
    171       0.00000           0.047557            1.29408
    172       0.00000           0.048647            1.32375
    173       0.00000           0.056534            1.53836
    174       0.00000           0.057619            1.56790
    175       0.00000           0.063384            1.72476
    176       0.00000           0.064944            1.76722
    177       0.00000           0.065654            1.78655
    178       0.00000           0.067160            1.82751
    179       0.00000           0.070981            1.93148
    180       0.00000           0.079745            2.16997
    181       0.00000           0.081299            2.21225
    182       0.00000           0.085956            2.33899
    183       0.00000           0.090997            2.47615
    184       0.00000           0.093528            2.54501
    185       0.00000           0.096008            2.61250
    186       0.00000           0.104255            2.83694
    187       0.00000           0.110989            3.02017
    188       0.00000           0.111375            3.03067
    189       0.00000           0.115872            3.15305
    190       0.00000           0.122132            3.32339
    191       0.00000           0.123902            3.37155
    192       0.00000           0.128213            3.48887
    193       0.00000           0.128763            3.50383
    194       0.00000           0.133667            3.63726
    195       0.00000           0.135780            3.69475
    196       0.00000           0.136290            3.70864
    197       0.00000           0.141275            3.84428
    198       0.00000           0.149163            4.05894
    199       0.00000           0.149579            4.07026
    200       0.00000           0.150607            4.09823
    201       0.00000           0.152563            4.15144
    202       0.00000           0.153885            4.18744
    203       0.00000           0.157231            4.27846
    204       0.00000           0.159293            4.33458
    205       0.00000           0.160606            4.37032
    206       0.00000           0.162925            4.43341
    207       0.00000           0.164092            4.46516
    208       0.00000           0.164222            4.46872
    209       0.00000           0.168547            4.58640
    210       0.00000           0.169803            4.62057
    211       0.00000           0.174414            4.74604
    212       0.00000           0.177664            4.83449
    213       0.00000           0.179881            4.89481
    214       0.00000           0.180139            4.90183
    215       0.00000           0.180672            4.91635
    216       0.00000           0.181097            4.92791
    217       0.00000           0.181788            4.94671
    218       0.00000           0.190483            5.18331
    219       0.00000           0.191890            5.22159
    220       0.00000           0.194901            5.30353
    221       0.00000           0.195274            5.31368
    222       0.00000           0.196458            5.34590
    223       0.00000           0.198692            5.40669
    224       0.00000           0.205242            5.58492
    225       0.00000           0.206144            5.60947
    226       0.00000           0.207868            5.65637
    227       0.00000           0.209028            5.68794
    228       0.00000           0.210497            5.72793
    229       0.00000           0.214937            5.84872
    230       0.00000           0.215189            5.85559
    231       0.00000           0.217522            5.91908
    232       0.00000           0.218615            5.94880
    233       0.00000           0.218898            5.95653
    234       0.00000           0.221241            6.02028
    235       0.00000           0.222868            6.06455
    236       0.00000           0.223444            6.08023
    237       0.00000           0.224105            6.09821
    238       0.00000           0.224743            6.11558
    239       0.00000           0.227852            6.20017
    240       0.00000           0.229980            6.25807
    241       0.00000           0.231316            6.29444
    242       0.00000           0.231521            6.30001
    243       0.00000           0.233612            6.35691
    244       0.00000           0.235677            6.41308
    245       0.00000           0.239372            6.51363
    246       0.00000           0.239912            6.52834
    247       0.00000           0.241359            6.56771
    248       0.00000           0.241917            6.58289
    249       0.00000           0.246383            6.70444
    250       0.00000           0.246755            6.71455
    251       0.00000           0.247577            6.73692
    252       0.00000           0.249377            6.78590
    253       0.00000           0.253798            6.90619
    254       0.00000           0.253981            6.91117
    255       0.00000           0.259945            7.07348
    256       0.00000           0.260733            7.09491
    257       0.00000           0.261948            7.12795
    258       0.00000           0.262748            7.14974
    259       0.00000           0.267146            7.26941
    260       0.00000           0.268771            7.31363
    261       0.00000           0.269955            7.34585
    262       0.00000           0.275253            7.49002
    263       0.00000           0.276980            7.53700
    264       0.00000           0.277466            7.55022
    265       0.00000           0.277703            7.55668
    266       0.00000           0.285668            7.77341
    267       0.00000           0.286577            7.79814
    268       0.00000           0.287823            7.83205
    269       0.00000           0.290613            7.90797
    270       0.00000           0.292411            7.95692
    271       0.00000           0.295626            8.04440
    272       0.00000           0.297310            8.09022
    273       0.00000           0.301238            8.19711
    274       0.00000           0.302644            8.23535
    275       0.00000           0.305556            8.31461
    276       0.00000           0.306853            8.34989
    277       0.00000           0.312382            8.50033
    278       0.00000           0.313903            8.54175
    279       0.00000           0.319887            8.70457
    280       0.00000           0.323044            8.79047
    281       0.00000           0.324490            8.82981
    282       0.00000           0.324937            8.84198
    283       0.00000           0.325336            8.85284
    284       0.00000           0.327253            8.90502
    285       0.00000           0.327777            8.91927
    286       0.00000           0.331011            9.00728
    287       0.00000           0.333659            9.07932
    288       0.00000           0.340588            9.26788
    289       0.00000           0.341088            9.28147
    290       0.00000           0.342340            9.31555
    291       0.00000           0.342357            9.31600
    292       0.00000           0.344796            9.38238
    293       0.00000           0.344835            9.38343
    294       0.00000           0.349402            9.50770
    295       0.00000           0.354495            9.64629
    296       0.00000           0.360146            9.80006
    297       0.00000           0.367278            9.99413
    298       0.00000           0.370161           10.07259
    299       0.00000           0.371545           10.11025
    300       0.00000           0.372739           10.14274
    301       0.00000           0.374529           10.19145
    302       0.00000           0.382281           10.40239
    303       0.00000           0.385776           10.49749
    304       0.00000           0.389216           10.59110
    305       0.00000           0.389439           10.59717
    306       0.00000           0.390114           10.61555
    307       0.00000           0.393304           10.70235
    308       0.00000           0.398789           10.85160

  Highest occupied state (VBM) at     -4.51255503 eV
  | Occupation number:      2.00000000

  Lowest unoccupied state (CBM) at    -2.95214675 eV
  | Occupation number:      0.00000000

  Overall HOMO-LUMO gap:      1.56040828 eV.

  Total energy components:
  | Sum of eigenvalues            :        -918.90784318 Ha      -25004.75464085 eV
  | XC energy correction          :        -236.78713875 Ha       -6443.30587711 eV
  | XC potential correction       :         304.18525643 Ha        8277.30197185 eV
  | Free-atom electrostatic energy:        -704.49164158 Ha      -19170.19293616 eV
  | Hartree energy correction     :         -60.60955378 Ha       -1649.26987216 eV
  | Entropy correction            :           0.00000000 Ha           0.00000000 eV
  | ---------------------------
  | Total energy                  :       -1616.61092086 Ha      -43990.22135443 eV
  | Total energy, T -> 0          :       -1616.61092086 Ha      -43990.22135443 eV  <-- do not rely on this value for anything but (periodic) metals
  | Electronic free energy        :       -1616.61092086 Ha      -43990.22135443 eV

  Derived energy quantities:
  | Kinetic energy                :        1612.26347178 Ha       43871.92124586 eV
  | Electrostatic energy          :       -2992.08725389 Ha      -81418.83672318 eV
  | Energy correction for multipole
  | error in Hartree potential    :          -0.19466901 Ha          -5.29721319 eV
  | Sum of eigenvalues per atom                           :        -357.21078058 eV
  | Total energy (T->0) per atom                          :        -628.43173363 eV  <-- do not rely on this value for anything but (periodic) metals
  | Electronic free energy per atom                       :        -628.43173363 eV
  End evaluation of scaled ZORA corrections.
  | Time for scaled ZORA corrections           :       11.346 s          11.358 s
------------------------------------------------------------

  Energy and forces in a compact form:
  | Total energy uncorrected      :         -0.439902213544338E+05 eV
  | Total energy corrected        :         -0.439902213544338E+05 eV  <-- do not rely on this value for anything but (periodic) metals
  | Electronic free energy        :         -0.439902213544338E+05 eV

  ------------------------------------ 
  Start decomposition of the XC Energy 
  ------------------------------------ 
  X and C from original XC functional choice 
  Hartree-Fock Energy :          0.000000000 Ha              0.000000000 eV
  X Energy            :       -227.417596281 Ha          -6188.347654466 eV
  C Energy            :         -9.369542467 Ha           -254.958222645 eV
  Total XC Energy     :       -236.787138747 Ha          -6443.305877111 eV
  ------------------------------------ 
  LDA X and C from self-consistent density 
  X Energy LDA        :       -205.969333201 Ha          -5604.710720942 eV
  C Energy LDA        :        -18.040264292 Ha           -490.900568124 eV
  ------------------------------------ 
  End decomposition of the XC Energy 
  ------------------------------------ 

------------------------------------------------------------

------------------------------------------------------------------------------
  Final output of selected total energy values:

  The following output summarizes some interesting total energy values
  at the end of a run (AFTER all relaxation, molecular dynamics, etc.).

  | Total energy of the DFT / Hartree-Fock s.c.f. calculation      :         -43990.221354434 eV
  | Final zero-broadening corrected energy (caution - metals only) :         -43990.221354434 eV
  | For reference only, the value of 1 Hartree used in FHI-aims is :             27.211384500 eV

  Before relying on these values, please be sure to understand exactly which
  total energy value is referred to by a given number. Different objects may
  all carry the same name 'total energy'. Definitions:

  Total energy of the DFT / Hartree-Fock s.c.f. calculation:
  | Note that this energy does not include ANY quantities calculated after the
  | s.c.f. cycle, in particular not ANY RPA, MP2, etc. many-body perturbation terms.
  | Scalar relativistic effects have been included in the 'scaled ZORA' approximation.

  Final zero-broadening corrected energy:
  | For metallic systems only, a broadening of the occupation numbers at the Fermi
  | level can be extrapolated back to zero broadening by an electron-gas inspired
  | formula. For all systems that are not real metals, this value can be
  | meaningless and should be avoided.

------------------------------------------------------------------------------
  Methods described in the following list of references were used in this FHI-aims run.
  If you publish the results, please make sure to cite these reference if they apply.
  FHI-aims is an academic code, and for our developers (often, Ph.D. students
  and postdocs), scientific credit in the community is essential.
  Thank you for helping us!

  For any use of FHI-aims, please cite:

    Volker Blum, Ralf Gehrke, Felix Hanke, Paula Havu, Ville Havu,
    Xinguo Ren, Karsten Reuter, and Matthias Scheffler
    'Ab initio molecular simulations with numeric atom-centered orbitals'
    Computer Physics Communications 180, 2175-2196 (2009)
    http://dx.doi.org/10.1016/j.cpc.2009.06.022


  The scalable eigensolver library ELPA was used in your run.
  ELPA is essential especially for large systems on hundreds or thousands of CPUs.
  For ELPA, please cite:

    Andreas Marek, Volker Blum, Rainer Johanni, Ville Havu, Bruno Lang,
    Thomas Auckenthaler, Alexander Heinecke, Hans-Joachim Bungartz, and Hermann Lederer,
    'The ELPA Library - Scalable Parallel Eigenvalue Solutions
    for Electronic Structure Theory and Computational Science'
    The Journal of Physics: Condensed Matter 26, 213201 (2014).
    http://dx.doi.org/10.1088/0953-8984/26/21/213201


  The ELSI infrastructure was used in your run to solve the Kohn-Sham electronic structure.
  Please check out http://elsi-interchange.org to learn more.
  If scalability is important for your project, please acknowledge ELSI by citing:

    V. W-z. Yu, F. Corsetti, A. Garcia, W. P. Huhn, M. Jacquelin, W. Jia,
    B. Lange, L. Lin, J. Lu, W. Mi, A. Seifitokaldani, A. Vazquez-Mayagoitia,
    C. Yang, H. Yang, and V. Blum
    'ELSI: A unified software interface for Kohn-Sham electronic structure solvers'
    Computer Physics Communications 222, 267-285 (2018).
    http://dx.doi.org/10.1016/j.cpc.2017.09.007


  For the real-space grid partitioning and parallelization used in this calculation, please cite:

    Ville Havu, Volker Blum, Paula Havu, and Matthias Scheffler,
    'Efficient O(N) integration for all-electron electronic structure calculation'
    'using numerically tabulated basis functions'
    Journal of Computational Physics 228, 8367-8379 (2009).
    http://dx.doi.org/10.1016/j.jcp.2009.08.008

  Of course, there are many other important community references, e.g., those cited in the
  above references. Our list is limited to references that describe implementations in the
  FHI-aims code. The reason is purely practical (length of this list) - please credit others as well.

------------------------------------------------------------
          Leaving FHI-aims.
          Date     :  20210620, Time     :  174549.618

          Computational steps:
          | Number of self-consistency cycles          :           18
          | Number of SCF (re)initializations          :            1

          Detailed time accounting                     :  max(cpu_time)    wall_clock(cpu1)
          | Total time                                 :      207.765 s         207.971 s
          | Preparation time                           :        0.203 s           0.209 s
          | Boundary condition initalization           :        0.001 s           0.003 s
          | Grid partitioning                          :        1.183 s           1.187 s
          | Preloading free-atom quantities on grid    :        0.013 s           0.016 s
          | Free-atom superposition energy             :        0.133 s           0.133 s
          | Total time for integrations                :      119.699 s         119.708 s
          | Total time for solution of K.-S. equations :        6.056 s           6.079 s
          | Total time for density update              :       48.456 s          48.404 s
          | Total time for mixing                      :        0.211 s           0.215 s
          | Total time for Hartree multipole update    :        0.249 s           0.254 s
          | Total time for Hartree multipole sum       :       18.195 s          18.198 s
          | Total time for total energy evaluation     :        0.009 s           0.034 s
          | Total time for scaled ZORA corrections     :       11.346 s          11.358 s

          Partial memory accounting:
          | Residual value for overall tracked memory usage across tasks :     0.000000 MB (should be 0.000000 MB)
          | Peak values for overall tracked memory usage (after allocating zora_vector2):
          |   Minimum:       40.227 MB (on task 16)
          |   Maximum:       54.454 MB (on task 27)
          |   Average:       45.375 MB
          | Largest tracked array allocation (hamiltonian_shell):
          |   Minimum:       12.044 MB (on task  1)
          |   Maximum:       12.738 MB (on task 27)
          |   Average:       12.057 MB
          Note:  These values currently only include a subset of arrays which are explicitly tracked.
          The "true" memory usage will be greater.

          Have a nice day.
------------------------------------------------------------
