  MPI-parallelism will be employed.
------------------------------------------------------------
          Invoking FHI-aims ...
          Version 180607
          Git rev. (modified): 6724847 Fix JSON memory corruption in scf_solver
          Compiled on 2018/06/27 at 16:00:31 on host coe.psc.edu.

          When using FHI-aims, please cite the following reference:

          Volker Blum, Ralf Gehrke, Felix Hanke, Paula Havu,
          Ville Havu, Xinguo Ren, Karsten Reuter, and Matthias Scheffler,
          'Ab Initio Molecular Simulations with Numeric Atom-Centered Orbitals',
          Computer Physics Communications 180, 2175-2196 (2009)

          For any questions about FHI-aims, please visit the aimsclub website
          with its forums and wiki. Contributions to both the forums and the
          wiki are warmly encouraged - they are for you, and everyone is welcome there.

------------------------------------------------------------



  Date     :  20210620, Time     :  175556.618
  Time zero on CPU 1             :   0.258135000000000E+00  s.
  Internal wall clock time zero  :           393443756.618  s.

  FHI-aims created a unique identifier for this run for later identification
  aims_uuid : 31EA58D1-CC54-415A-A1E1-1DE801DC998C

  Using       56 parallel tasks.
  Task        0 on host f001 reporting.
  Task        1 on host f001 reporting.
  Task        2 on host f001 reporting.
  Task        3 on host f001 reporting.
  Task        4 on host f001 reporting.
  Task        5 on host f001 reporting.
  Task        6 on host f001 reporting.
  Task        7 on host f001 reporting.
  Task        8 on host f001 reporting.
  Task        9 on host f001 reporting.
  Task       10 on host f001 reporting.
  Task       11 on host f001 reporting.
  Task       12 on host f001 reporting.
  Task       13 on host f001 reporting.
  Task       14 on host f001 reporting.
  Task       15 on host f001 reporting.
  Task       16 on host f001 reporting.
  Task       17 on host f001 reporting.
  Task       18 on host f001 reporting.
  Task       19 on host f001 reporting.
  Task       20 on host f001 reporting.
  Task       21 on host f001 reporting.
  Task       22 on host f001 reporting.
  Task       23 on host f001 reporting.
  Task       24 on host f001 reporting.
  Task       25 on host f001 reporting.
  Task       26 on host f001 reporting.
  Task       27 on host f001 reporting.
  Task       28 on host f001 reporting.
  Task       29 on host f001 reporting.
  Task       30 on host f001 reporting.
  Task       31 on host f001 reporting.
  Task       32 on host f001 reporting.
  Task       33 on host f001 reporting.
  Task       34 on host f001 reporting.
  Task       35 on host f001 reporting.
  Task       36 on host f001 reporting.
  Task       37 on host f001 reporting.
  Task       38 on host f001 reporting.
  Task       39 on host f001 reporting.
  Task       40 on host f001 reporting.
  Task       41 on host f001 reporting.
  Task       42 on host f001 reporting.
  Task       43 on host f001 reporting.
  Task       44 on host f001 reporting.
  Task       45 on host f001 reporting.
  Task       46 on host f001 reporting.
  Task       47 on host f001 reporting.
  Task       48 on host f001 reporting.
  Task       49 on host f001 reporting.
  Task       50 on host f001 reporting.
  Task       51 on host f001 reporting.
  Task       52 on host f001 reporting.
  Task       53 on host f001 reporting.
  Task       54 on host f001 reporting.
  Task       55 on host f001 reporting.

  Performing system and environment tests:
  *** Environment variable OMP_NUM_THREADS is not set
  *** For performance reasons you might want to set it to 1
  | Stacksize not measured: no C compiler
  | Checking for scalapack...
  | Testing pdtran()...
  | All pdtran() tests passed.

  Obtaining array dimensions for all initial allocations:
  
  -----------------------------------------------------------------------
  Parsing control.in (first pass over file, find array dimensions only).
  The contents of control.in will be repeated verbatim below
  unless switched off by setting 'verbatim_writeout .false.' .
  in the first line of control.in .
  -----------------------------------------------------------------------
  
  #===============================================================================
  # FHI-aims file: ./Runs/es/control.in
  # Created using the Atomic Simulation Environment (ASE)
  # Mon Jan 13 16:04:38 2020
  #===============================================================================
  xc                                 pbe
  relativistic                       zora scalar 1e-12
  occupation_type                    gaussian 0.0001
  load_balancing                     .true.
  KS_method                          scalapack_fast
  mixer                              pulay
  n_max_pulay                        5
  charge_mix_param                   0.4
  sc_accuracy_etot                   1e-6
  sc_accuracy_eev                    1e-4
  sc_accuracy_rho                    1e-6
  sc_iter_limit                      100
  prodbas_threshold                  1e-4
  basis_threshold                    1e-5
  override_illconditioning           .true.
  use_logsbt                         .true.
  spin                               none
  charge                             0
  #===============================================================================
  
  ################################################################################
  #
  #  FHI-aims code project
  # Volker Blum, Fritz Haber Institute Berlin, 2009
  #
  #  Suggested "tight" defaults for H atom (to be pasted into control.in file)
  #
  ################################################################################
    species        H
  #     global species definitions
      nucleus             1
      mass                1.00794
  #
      l_hartree           6
  #
      cut_pot             4.0  2.0  1.0
      basis_dep_cutoff    1e-4
  #
      radial_base         24 7.0
      radial_multiplier   2
      angular_grids       specified
        division   0.1930   50
        division   0.3175  110
        division   0.4293  194
        division   0.5066  302
        division   0.5626  434
  #      division   0.5922  590
  #      division   0.6227  974
  #      division   0.6868 1202
  #      outer_grid  770
        outer_grid  434
  ################################################################################
  #
  #  Definition of "minimal" basis
  #
  ################################################################################
  #     valence basis states
      valence      1  s   1.
  #     ion occupancy
      ion_occ      1  s   0.5
  ################################################################################
  #
  #  Suggested additional basis functions. For production calculations,
  #  uncomment them one after another (the most important basis functions are
  #  listed first).
  #
  #  Basis constructed for dimers: 0.5 A, 0.7 A, 1.0 A, 1.5 A, 2.5 A
  #
  ################################################################################
  #  "First tier" - improvements: -1014.90 meV to -62.69 meV
       hydro 2 s 2.1
       hydro 2 p 3.5
  #  "Second tier" - improvements: -12.89 meV to -1.83 meV
       hydro 1 s 0.85
       hydro 2 p 3.7
       hydro 2 s 1.2
       hydro 3 d 7
  #  "Third tier" - improvements: -0.25 meV to -0.12 meV
  #     hydro 4 f 11.2
  #     hydro 3 p 4.8
  #     hydro 4 d 9
  #     hydro 3 s 3.2
  ################################################################################
  #
  # For methods that use the localized form of the "resolution of identity" for
  # the two-electron Coulomb operator (RI_method LVL), particularly Hartree-Fock and
  # hybrid density functional calculations, the highest accuracy can be obtained by
  # uncommenting the line beginning with "for_aux"  below, thus adding an extra g radial
  # function to the construction of the product basis set for the expansion.
  # See Ref. New J. Phys. 17, 093020 (2015) for more information, particularly Figs. 1 and 6.
  #
  ################################################################################
  #
  # for_aux hydro 5 g 6.0
  ################################################################################
  #
  #  FHI-aims code project
  # Volker Blum, Fritz Haber Institute Berlin, 2009
  #
  #  Suggested "tight" defaults for C atom (to be pasted into control.in file)
  #
  ################################################################################
    species        C
  #     global species definitions
      nucleus             6
      mass                12.0107
  #
      l_hartree           6
  #
      cut_pot             4.0  2.0  1.0
      basis_dep_cutoff    1e-4
  #
      radial_base         34 7.0
      radial_multiplier   2
      angular_grids specified
        division   0.2187   50
        division   0.4416  110
        division   0.6335  194
        division   0.7727  302
        division   0.8772  434
  #      division   0.9334  590
  #      division   0.9924  770
  #      division   1.0230  974
  #      division   1.5020 1202
  #     outer_grid  974
        outer_grid  434
  ################################################################################
  #
  #  Definition of "minimal" basis
  #
  ################################################################################
  #     valence basis states
      valence      2  s   2.
      valence      2  p   2.
  #     ion occupancy
      ion_occ      2  s   1.
      ion_occ      2  p   1.
  ################################################################################
  #
  #  Suggested additional basis functions. For production calculations,
  #  uncomment them one after another (the most important basis functions are
  #  listed first).
  #
  #  Constructed for dimers: 1.0 A, 1.25 A, 1.5 A, 2.0 A, 3.0 A
  #
  ################################################################################
  #  "First tier" - improvements: -1214.57 meV to -155.61 meV
       hydro 2 p 1.7
       hydro 3 d 6
       hydro 2 s 4.9
  #  "Second tier" - improvements: -67.75 meV to -5.23 meV
       hydro 4 f 9.8
       hydro 3 p 5.2
       hydro 3 s 4.3
       hydro 5 g 14.4
       hydro 3 d 6.2
  #  "Third tier" - improvements: -2.43 meV to -0.60 meV
  #     hydro 2 p 5.6
  #     hydro 2 s 1.4
  #     hydro 3 d 4.9
  #     hydro 4 f 11.2
  #  "Fourth tier" - improvements: -0.39 meV to -0.18 meV
  #     hydro 2 p 2.1
  #     hydro 5 g 16.4
  #     hydro 4 d 13.2
  #     hydro 3 s 13.6
  #     hydro 4 f 17.6
  #  Further basis functions - improvements: -0.08 meV and below
  #     hydro 3 s 2
  #     hydro 3 p 6
  #     hydro 4 d 20
  ################################################################################
  #
  # For methods that use the localized form of the "resolution of identity" for
  # the two-electron Coulomb operator (RI_method LVL), particularly Hartree-Fock and
  # hybrid density functional calculations, the highest accuracy can be obtained by
  # uncommenting the line beginning with "for_aux"  below, thus adding an extra g radial
  # function to the construction of the product basis set for the expansion.
  # See Ref. New J. Phys. 17, 093020 (2015) for more information, particularly Figs. 1 and 6.
  #
  ################################################################################
  #
  # for_aux hydro 5 g 6.0
  
  -----------------------------------------------------------------------
  Completed first pass over input file control.in .
  -----------------------------------------------------------------------
  
  
  -----------------------------------------------------------------------
  Parsing geometry.in (first pass over file, find array dimensions only).
  The contents of geometry.in will be repeated verbatim below
  unless switched off by setting 'verbatim_writeout .false.' .
  in the first line of geometry.in .
  -----------------------------------------------------------------------
  
  #=======================================================
  # FHI-aims file: geometry.in
  # Created using the Atomic Simulation Environment (ASE)
  # Sun Jun 20 15:47:02 2021
  #=======================================================
  atom 22.3085079999999998 32.4832049999999981 60.5790420000000012 H
  atom 21.5379310000000004 33.1203209999999970 60.1446830000000006 C
  atom 21.1199469999999998 32.9141649999999970 58.8559520000000020 C
  atom 21.0002220000000008 34.1576700000000031 60.8925229999999971 C
  atom 20.1679859999999991 33.7243470000000016 58.2844899999999981 C
  atom 21.5586969999999987 32.1037189999999981 58.2732010000000002 H
  atom 20.0347620000000006 34.9573480000000032 60.3234119999999976 C
  atom 21.3355630000000005 34.3413729999999973 61.9105729999999994 H
  atom 19.8245930000000001 33.5482609999999966 57.2659689999999983 H
  atom 19.5980349999999994 34.7590700000000012 59.0370330000000010 C
  atom 19.6035089999999990 35.7727829999999969 60.9052220000000020 H
  atom 18.4994720000000008 35.5810710000000014 58.4561640000000011 C
  atom 17.2338799999999992 35.5758179999999982 59.0464399999999969 C
  atom 18.7082580000000007 36.3124669999999981 57.2544460000000015 C
  atom 16.7771159999999995 34.5752359999999967 60.0506150000000005 C
  atom 16.2679079999999985 36.5409470000000027 58.5996170000000021 C
  atom 17.5759720000000002 36.7917490000000029 56.5442329999999984 C
  atom 20.0281930000000017 36.5186240000000026 56.6923900000000032 C
  atom 15.6501459999999994 34.8562399999999997 60.8337300000000027 C
  atom 17.3300759999999983 33.2844589999999982 60.1399789999999967 C
  atom 15.2617930000000008 36.9821480000000022 59.6037919999999986 C
  atom 16.3803850000000004 37.0517430000000019 57.3061829999999972 C
  atom 17.6956109999999995 37.0149759999999972 55.1120489999999990 C
  atom 20.1166699999999992 36.8272029999999972 55.3378119999999996 C
  atom 21.2396069999999995 36.6157940000000011 57.5507599999999968 C
  atom 15.1538789999999999 33.8687880000000021 61.7038590000000013 C
  atom 15.0066670000000002 36.1653999999999982 60.7208490000000012 C
  atom 16.8251139999999992 32.3390270000000015 60.9912940000000035 C
  atom 18.1434630000000006 33.0012230000000031 59.4822089999999974 H
  atom 14.6623269999999994 38.2558549999999968 59.5896820000000034 C
  atom 15.3152819999999998 37.9288939999999997 56.7370719999999977 C
  atom 16.5269690000000011 37.1541649999999990 54.2089959999999991 C
  atom 18.9552349999999983 36.9782089999999997 54.5499930000000006 C
  atom 21.4546549999999989 37.0451770000000025 54.6981499999999983 C
  atom 22.4198459999999997 35.9106590000000025 57.3108860000000035 C
  atom 21.2707720000000009 37.5599119999999971 58.5855069999999998 C
  atom 14.2696930000000002 34.0801969999999983 62.3028359999999992 H
  atom 15.7422389999999996 32.6410399999999967 61.7932229999999976 C
  atom 14.1615760000000002 36.6341770000000011 61.7344310000000007 C
  atom 17.2643149999999999 31.3425149999999988 61.0009360000000029 H
  atom 13.8544820000000009 38.6891779999999983 60.6079670000000021 C
  atom 14.8903789999999994 38.9510110000000012 58.7884579999999985 H
  atom 14.0010549999999991 37.5021360000000001 56.6288940000000025 C
  atom 15.5944369999999992 39.2459330000000008 56.3960760000000008 C
  atom 15.7069510000000001 36.0616649999999979 53.9503100000000018 C
  atom 16.2843330000000002 38.3096930000000029 53.4705629999999985 C
  atom 19.1216739999999987 37.0780049999999974 53.0566639999999978 C
  atom 22.0543329999999997 36.0130809999999997 53.9879370000000023 C
  atom 22.0924489999999984 38.2571689999999975 54.7898660000000035 C
  atom 22.4297259999999987 35.1448589999999967 56.5367069999999998 H
  atom 23.5485860000000002 36.1588350000000034 58.0187480000000022 C
  atom 20.3649479999999983 38.1135149999999996 58.8317300000000003 H
  atom 22.4194199999999988 37.8185929999999999 59.2839609999999979 C
  atom 15.3227820000000001 31.8861390000000000 62.4608699999999999 H
  atom 13.9734269999999992 35.9982430000000022 62.5965630000000033 H
  atom 13.5881319999999999 37.8619249999999994 61.6897489999999991 C
  atom 13.4468460000000007 39.6960630000000023 60.5778660000000002 H
  atom 13.7529290000000000 36.4713530000000006 56.8859350000000035 H
  atom 13.0082850000000008 38.3609030000000004 56.2173469999999966 C
  atom 14.6051179999999992 40.1086400000000012 56.0033420000000035 C
  atom 16.6193910000000002 39.6033589999999975 56.4727409999999992 H
  atom 14.7025319999999997 36.1233810000000020 53.0213889999999992 C
  atom 15.8737849999999998 35.1321220000000025 54.4926109999999966 H
  atom 15.2714180000000006 38.3753480000000025 52.5534010000000009 C
  atom 16.9101859999999995 39.1855300000000000 53.6457649999999973 H
  atom 18.8495530000000002 35.9828789999999969 52.2664940000000016 C
  atom 19.5787990000000001 38.2322199999999981 52.4475740000000030 C
  atom 21.5543410000000009 35.0486089999999990 53.8985720000000015 H
  atom 23.3065199999999990 36.2284289999999984 53.3835499999999996 C
  atom 21.6268530000000005 39.0582909999999970 55.3636800000000022 H
  atom 23.3072429999999997 38.4764559999999989 54.1737210000000005 C
  atom 24.4573180000000008 35.5985349999999983 57.7946310000000025 H
  atom 23.5794989999999984 37.1357810000000015 58.9994060000000005 C
  atom 22.4118640000000013 38.5971299999999999 60.0480280000000022 H
  atom 12.9485869999999998 38.1954530000000005 62.5064929999999990 H
  atom 11.9832739999999998 38.0007200000000012 56.1505590000000012 H
  atom 13.3106100000000005 39.6687510000000003 55.9186809999999994 C
  atom 14.8591619999999995 41.1428370000000001 55.7660559999999990 H
  atom 14.0871180000000003 35.2396650000000022 52.8417189999999977 H
  atom 14.4792269999999998 37.2710300000000032 52.3088240000000013 C
  atom 15.1041139999999992 39.2974060000000023 51.9948729999999983 H
  atom 18.4856979999999993 35.0644970000000029 52.7290729999999996 H
  atom 19.0343690000000016 36.0419690000000017 50.9001570000000001 C
  atom 19.7672549999999987 38.2755519999999976 51.0671279999999967 C
  atom 19.7912029999999994 39.1137039999999985 53.0521960000000021 H
  atom 23.8003929999999997 35.4212660000000028 52.8433649999999986 H
  atom 23.9034809999999993 37.4614300000000000 53.5081899999999990 C
  atom 23.7904209999999985 39.4505139999999983 54.2489750000000015 H
  atom 24.5071179999999984 37.3587449999999990 59.5268919999999966 H
  atom 12.5220459999999996 40.3587849999999975 55.6131960000000021 H
  atom 13.6928800000000006 37.3207969999999989 51.5536940000000001 H
  atom 18.8067700000000002 35.1675759999999968 50.2898909999999972 H
  atom 19.4975680000000011 37.1738610000000023 50.3098809999999972 C
  atom 20.1266859999999994 39.1949850000000026 50.6019620000000003 H
  atom 24.8786149999999999 37.6237289999999973 53.0477279999999993 H
  atom 19.6383049999999990 37.1992040000000017 49.2297459999999987 H
  
  -----------------------------------------------------------------------
  Completed first pass over input file geometry.in .
  -----------------------------------------------------------------------
  

  Basic array size parameters:
  | Number of species                 :        2
  | Number of atoms                   :       96
  | Max. basis fn. angular momentum   :        4
  | Max. atomic/ionic basis occupied n:        2
  | Max. number of basis fn. types    :        2
  | Max. radial fns per species/type  :        8
  | Max. logarithmic grid size        :     1277
  | Max. radial integration grid size :       69
  | Max. angular integration grid size:      434
  | Max. angular grid division number :        8
  | Radial grid for Hartree potential :     1277
  | Number of spin channels           :        1

------------------------------------------------------------
          Reading file control.in.
------------------------------------------------------------
  XC: Using PBE gradient-corrected functionals.
  Scalar relativistic treatment of kinetic energy: ZORA.
  Threshold value for ZORA:   0.100000E-11
  Occupation type: Gaussian broadening, width =   0.100000E-03 eV.
  Since 'load_balancing .true.' is present in control.in, automatically turning on 'use_local_index .true.'.
  Using load balancing for integrations.
  Kohn-Sham electronic structure solved by the ELSI library.
  Using pulay charge density mixing.
  Pulay mixing - number of memorized iterations:    5
  Charge density mixing - mixing parameter:     0.4000
  Convergence accuracy of total energy:  0.1000E-05
  Convergence accuracy of sum of eigenvalues:  0.1000E-03
  Convergence accuracy of self-consistent charge density:  0.1000E-05
  Maximum number of s.-c. iterations  :   100
  * Ignoring prodbas_threshold
  Threshold for basis singularities:  0.1000E-04
  override_illconditioning: Explicitly overriding any built-in checks for an ill-conditioned overlap matrix.
  *** WARNING: If you use this flag, you should really know what you are doing.
  *** DO NOT keep this flag set by default in all your control.in files.
  Using 1D integrations for auxiliary 2-center integrals.
  Spin treatment: No spin polarisation.
  Charge =   0.000000E+00: Neutral system requested explicitly.
 
  Reading configuration options for species H                   .
  | Found nuclear charge :   1.0000
  | Found atomic mass :    1.00794000000000      amu
  | Found l_max for Hartree potential  :   6
  | Found cutoff potl. onset [A], width [A], scale factor :    4.00000    2.00000    1.00000
  | Threshold for basis-dependent cutoff potential is   0.100000E-03
  | Found data for basic radial integration grid :    24 points, outermost radius =    7.000 A
  | Found multiplier for basic radial grid :   2
  | Found angular grid specification: user-specified.
  | Specified grid contains     6 separate shells.
  | Check grid settings after all constraints further below.
  | Found free-atom valence shell :  1 s   1.000
  | No ionic wave fns used. Skipping ion_occ.
  | Found hydrogenic basis function :  2 s   2.100
  | Found hydrogenic basis function :  2 p   3.500
  | Found hydrogenic basis function :  1 s   0.850
  | Found hydrogenic basis function :  2 p   3.700
  | Found hydrogenic basis function :  2 s   1.200
  | Found hydrogenic basis function :  3 d   7.000
  Species H                   : Missing cutoff potential type.
  Defaulting to exp(1/x)/(1-x)^2 type cutoff potential.
  Species H : No 'logarithmic' tag. Using default grid for free atom:
  | Default logarithmic grid data [bohr] : 0.1000E-03 0.1000E+03 0.1012E+01
  Species H : On-site basis accuracy parameter (for Gram-Schmidt orthonormalisation) not specified.
  Using default value basis_acc =  0.1000000E-03.
  Species H                   : Using default innermost maximum threshold i_radial=  2 for radial functions.
  Species H                   : Default cutoff onset for free atom density etc. : 0.40000000E+01 AA.
  Species H                   : Basic radial grid will be enhanced according to radial_multiplier =   2, to contain    49 grid points.
 
  Reading configuration options for species C                   .
  | Found nuclear charge :   6.0000
  | Found atomic mass :    12.0107000000000      amu
  | Found l_max for Hartree potential  :   6
  | Found cutoff potl. onset [A], width [A], scale factor :    4.00000    2.00000    1.00000
  | Threshold for basis-dependent cutoff potential is   0.100000E-03
  | Found data for basic radial integration grid :    34 points, outermost radius =    7.000 A
  | Found multiplier for basic radial grid :   2
  | Found angular grid specification: user-specified.
  | Specified grid contains     6 separate shells.
  | Check grid settings after all constraints further below.
  | Found free-atom valence shell :  2 s   2.000
  | Found free-atom valence shell :  2 p   2.000
  | No ionic wave fns used. Skipping ion_occ.
  | No ionic wave fns used. Skipping ion_occ.
  | Found hydrogenic basis function :  2 p   1.700
  | Found hydrogenic basis function :  3 d   6.000
  | Found hydrogenic basis function :  2 s   4.900
  | Found hydrogenic basis function :  4 f   9.800
  | Found hydrogenic basis function :  3 p   5.200
  | Found hydrogenic basis function :  3 s   4.300
  | Found hydrogenic basis function :  5 g  14.400
  | Found hydrogenic basis function :  3 d   6.200
  Species C                   : Missing cutoff potential type.
  Defaulting to exp(1/x)/(1-x)^2 type cutoff potential.
  Species C : No 'logarithmic' tag. Using default grid for free atom:
  | Default logarithmic grid data [bohr] : 0.1000E-03 0.1000E+03 0.1012E+01
  Species C : On-site basis accuracy parameter (for Gram-Schmidt orthonormalisation) not specified.
  Using default value basis_acc =  0.1000000E-03.
  Species C                   : Using default innermost maximum threshold i_radial=  2 for radial functions.
  Species C                   : Default cutoff onset for free atom density etc. : 0.40000000E+01 AA.
  Species C                   : Basic radial grid will be enhanced according to radial_multiplier =   2, to contain    69 grid points.
 
  Finished reading input file 'control.in'. Consistency checks are next.
 
  MPI_IN_PLACE appears to work with this MPI implementation.
  | Keeping use_mpi_in_place .true. (see manual).
  Target number of points in a grid batch is not set. Defaulting to  100
  Method for grid partitioning is not set. Defaulting to parallel hash+maxmin partitioning.
  Batch size limit is not set. Defaulting to    200
  By default, will store active basis functions for each batch.
  If in need of memory, prune_basis_once .false. can be used to disable this option.
  communication_type for Hartree potential was not specified.
  Defaulting to calc_hartree .
  Pulay mixer: Number of initial linear mixing iterations not set.
  Defaulting to    0 iterations.
  Work space size for distributed Hartree potential not set.
  Defaulting to   0.200000E+03 MB.
  Algorithm-dependent basis array size parameters:
  | n_max_pulay                         :        5
  Presetting      1001 iterations before the initial mixing cycle
  is restarted anyway using the sc_init_iter criterion / keyword.
  Presetting a factor      1.000 between actual scf density residual
  and density convergence criterion sc_accuracy_rho below which sc_init_iter
  takes no effect.
  Calculation of forces was not defined in control.in. No forces will be calculated.
  Geometry relaxation not requested: no relaxation will be performed.
  No accuracy limit for integral partition fn. given. Defaulting to  0.1000E-14.
  No threshold value for u(r) in integrations given. Defaulting to  0.1000E-05.
  No accuracy for occupation numbers given. Defaulting to  0.1000E-12.
  No threshold value for occupation numbers given. Defaulting to  0.0000E+00.
  No accuracy for fermi level given. Defaulting to  0.1000E-19.
  Maximum # of iterations to find E_F not set. Defaulting to  200.
  Will not use alltoall communication since running on < 1024 CPUs.
  partition_type (choice of integration weights) for integrals was not specified.
  | Using a version of the partition function of Stratmann and coworkers ('stratmann_sparse').
  | At each grid point, the set of atoms used to build the partition table is smoothly restricted to
  | only those atoms whose free-atom density would be non-zero at that grid point.
  Partitioning for Hartree potential was not defined. Using partition_type for integrals.
  | Adjusted default value of keyword multip_moments_threshold to:       0.10000000E-11
  | This value may affect high angular momentum components of the Hartree potential in periodic systems.
  No q(lm)/r^(l+1) cutoff set for long-range Hartree potential.
  | Using default value of  0.100000E-09 .
  | Verify using the multipole_threshold keyword.
  Defaulting to new monopole extrapolation.
  Density update method: automatic selection selected.
 * Warning: use_local_index and/or load_balancing needs packed_matrix_format = index
 * Changing the default setting to packed_matrix_format = index
------------------------------------------------------------


------------------------------------------------------------
          Reading geometry description geometry.in.
------------------------------------------------------------
  Input structure read successfully.
  The structure contains       96 atoms,  and a total of        386.000 electrons.

  Input geometry:
  | No unit cell requested.
  | Atomic structure:
  |       Atom                x [A]            y [A]            z [A]
  |    1: Species H            22.30850800       32.48320500       60.57904200
  |    2: Species C            21.53793100       33.12032100       60.14468300
  |    3: Species C            21.11994700       32.91416500       58.85595200
  |    4: Species C            21.00022200       34.15767000       60.89252300
  |    5: Species C            20.16798600       33.72434700       58.28449000
  |    6: Species H            21.55869700       32.10371900       58.27320100
  |    7: Species C            20.03476200       34.95734800       60.32341200
  |    8: Species H            21.33556300       34.34137300       61.91057300
  |    9: Species H            19.82459300       33.54826100       57.26596900
  |   10: Species C            19.59803500       34.75907000       59.03703300
  |   11: Species H            19.60350900       35.77278300       60.90522200
  |   12: Species C            18.49947200       35.58107100       58.45616400
  |   13: Species C            17.23388000       35.57581800       59.04644000
  |   14: Species C            18.70825800       36.31246700       57.25444600
  |   15: Species C            16.77711600       34.57523600       60.05061500
  |   16: Species C            16.26790800       36.54094700       58.59961700
  |   17: Species C            17.57597200       36.79174900       56.54423300
  |   18: Species C            20.02819300       36.51862400       56.69239000
  |   19: Species C            15.65014600       34.85624000       60.83373000
  |   20: Species C            17.33007600       33.28445900       60.13997900
  |   21: Species C            15.26179300       36.98214800       59.60379200
  |   22: Species C            16.38038500       37.05174300       57.30618300
  |   23: Species C            17.69561100       37.01497600       55.11204900
  |   24: Species C            20.11667000       36.82720300       55.33781200
  |   25: Species C            21.23960700       36.61579400       57.55076000
  |   26: Species C            15.15387900       33.86878800       61.70385900
  |   27: Species C            15.00666700       36.16540000       60.72084900
  |   28: Species C            16.82511400       32.33902700       60.99129400
  |   29: Species H            18.14346300       33.00122300       59.48220900
  |   30: Species C            14.66232700       38.25585500       59.58968200
  |   31: Species C            15.31528200       37.92889400       56.73707200
  |   32: Species C            16.52696900       37.15416500       54.20899600
  |   33: Species C            18.95523500       36.97820900       54.54999300
  |   34: Species C            21.45465500       37.04517700       54.69815000
  |   35: Species C            22.41984600       35.91065900       57.31088600
  |   36: Species C            21.27077200       37.55991200       58.58550700
  |   37: Species H            14.26969300       34.08019700       62.30283600
  |   38: Species C            15.74223900       32.64104000       61.79322300
  |   39: Species C            14.16157600       36.63417700       61.73443100
  |   40: Species H            17.26431500       31.34251500       61.00093600
  |   41: Species C            13.85448200       38.68917800       60.60796700
  |   42: Species H            14.89037900       38.95101100       58.78845800
  |   43: Species C            14.00105500       37.50213600       56.62889400
  |   44: Species C            15.59443700       39.24593300       56.39607600
  |   45: Species C            15.70695100       36.06166500       53.95031000
  |   46: Species C            16.28433300       38.30969300       53.47056300
  |   47: Species C            19.12167400       37.07800500       53.05666400
  |   48: Species C            22.05433300       36.01308100       53.98793700
  |   49: Species C            22.09244900       38.25716900       54.78986600
  |   50: Species H            22.42972600       35.14485900       56.53670700
  |   51: Species C            23.54858600       36.15883500       58.01874800
  |   52: Species H            20.36494800       38.11351500       58.83173000
  |   53: Species C            22.41942000       37.81859300       59.28396100
  |   54: Species H            15.32278200       31.88613900       62.46087000
  |   55: Species H            13.97342700       35.99824300       62.59656300
  |   56: Species C            13.58813200       37.86192500       61.68974900
  |   57: Species H            13.44684600       39.69606300       60.57786600
  |   58: Species H            13.75292900       36.47135300       56.88593500
  |   59: Species C            13.00828500       38.36090300       56.21734700
  |   60: Species C            14.60511800       40.10864000       56.00334200
  |   61: Species H            16.61939100       39.60335900       56.47274100
  |   62: Species C            14.70253200       36.12338100       53.02138900
  |   63: Species H            15.87378500       35.13212200       54.49261100
  |   64: Species C            15.27141800       38.37534800       52.55340100
  |   65: Species H            16.91018600       39.18553000       53.64576500
  |   66: Species C            18.84955300       35.98287900       52.26649400
  |   67: Species C            19.57879900       38.23222000       52.44757400
  |   68: Species H            21.55434100       35.04860900       53.89857200
  |   69: Species C            23.30652000       36.22842900       53.38355000
  |   70: Species H            21.62685300       39.05829100       55.36368000
  |   71: Species C            23.30724300       38.47645600       54.17372100
  |   72: Species H            24.45731800       35.59853500       57.79463100
  |   73: Species C            23.57949900       37.13578100       58.99940600
  |   74: Species H            22.41186400       38.59713000       60.04802800
  |   75: Species H            12.94858700       38.19545300       62.50649300
  |   76: Species H            11.98327400       38.00072000       56.15055900
  |   77: Species C            13.31061000       39.66875100       55.91868100
  |   78: Species H            14.85916200       41.14283700       55.76605600
  |   79: Species H            14.08711800       35.23966500       52.84171900
  |   80: Species C            14.47922700       37.27103000       52.30882400
  |   81: Species H            15.10411400       39.29740600       51.99487300
  |   82: Species H            18.48569800       35.06449700       52.72907300
  |   83: Species C            19.03436900       36.04196900       50.90015700
  |   84: Species C            19.76725500       38.27555200       51.06712800
  |   85: Species H            19.79120300       39.11370400       53.05219600
  |   86: Species H            23.80039300       35.42126600       52.84336500
  |   87: Species C            23.90348100       37.46143000       53.50819000
  |   88: Species H            23.79042100       39.45051400       54.24897500
  |   89: Species H            24.50711800       37.35874500       59.52689200
  |   90: Species H            12.52204600       40.35878500       55.61319600
  |   91: Species H            13.69288000       37.32079700       51.55369400
  |   92: Species H            18.80677000       35.16757600       50.28989100
  |   93: Species C            19.49756800       37.17386100       50.30988100
  |   94: Species H            20.12668600       39.19498500       50.60196200
  |   95: Species H            24.87861500       37.62372900       53.04772800
  |   96: Species H            19.63830500       37.19920400       49.22974600
  |

  | The smallest distance between any two atoms is         1.08373540 AA.
  |
  | The first atom of this pair is atom number                     20 .
  | The second atom of this pair is atom number                    29 .

  Number of empty states per atom not set in control.in - providing a guess from actual geometry.
  | Total number of empty states used during s.c.f. cycle:      231
  If you use a very high smearing, use empty_states (per atom!) in control.in to increase this value.

  Structure-dependent array size parameters: 
  | Maximum number of distinct radial functions  :       18
  | Maximum number of basis functions            :     2832
  | Number of Kohn-Sham states (occupied + empty):      424
------------------------------------------------------------

------------------------------------------------------------
          Preparing all fixed parts of the calculation.
------------------------------------------------------------
  Determining machine precision:
    2.225073858507201E-308
  Setting up grids for atomic and cluster calculations.

  Creating wave function, potential, and density for free atoms.

  Species: H

  List of occupied orbitals and eigenvalues:
    n    l              occ      energy [Ha]    energy [eV]
    1    0           1.0000        -0.238386        -6.4868


  Species: C

  List of occupied orbitals and eigenvalues:
    n    l              occ      energy [Ha]    energy [eV]
    1    0           2.0000       -10.049212      -273.4530
    2    0           2.0000        -0.504761       -13.7352
    2    1           2.0000        -0.193631        -5.2690

  Creating fixed part of basis set: Ionic, confined, hydrogenic.
 
  H                    hydrogenic:
 
  List of hydrogenic basis orbitals: 
    n    l      effective z      eigenvalue [eV]  inner max. [A]     outer max. [A]     outer radius [A]   
    2    0         2.100000       -14.9965           0.193243           1.317208           5.373006
    2    1         3.500000       -41.6672           0.602369           0.602369           4.056063
    1    0         0.850000        -9.8292           0.624871           0.624871           5.373006
    2    1         3.700000       -46.5653           0.573622           0.573622           3.910002
    2    0         1.200000        -4.5995           0.334980           2.228188           5.505995
    3    2         7.000000       -74.0753           0.680699           0.680699           3.769201
 
 
  C                    hydrogenic:
 
  List of hydrogenic basis orbitals: 
    n    l      effective z      eigenvalue [eV]  inner max. [A]     outer max. [A]     outer radius [A]   
    2    1         1.700000        -9.8152           1.245706           1.245706           5.401630
    3    2         6.000000       -54.4226           0.792453           0.792453           4.178599
    2    0         4.900000       -81.6681           0.082559           0.562749           3.353238
    4    3         9.800000       -81.6681           0.863254           0.863254           4.028125
    3    1         5.200000       -40.8774           0.305389           1.215618           4.898362
    3    0         4.300000       -27.9508           0.091041           1.610311           5.401630
    5    4        14.400000      -112.8510           0.917666           0.917666           3.883070
    3    2         6.200000       -58.1113           0.763917           0.763917           4.077671
 

  Adding cutoff potential to free-atom effective potential.
  Creating atomic-like basis functions for current effective potential.

  Species H                   :

  List of atomic basis orbitals and eigenvalues:
    n    l      energy [Ha]    energy [eV]    outer radius [A]
    1    0        -0.238386        -6.4868       5.373006


  Species C                   :

  List of atomic basis orbitals and eigenvalues:
    n    l      energy [Ha]    energy [eV]    outer radius [A]
    1    0       -10.049212      -273.4530       1.934409
    2    0        -0.504761       -13.7352       5.271162
    2    1        -0.193631        -5.2690       5.401630

  Assembling full basis from fixed parts.
  | Species H :   atomic orbital   1 s accepted.
  | Species H :    hydro orbital   2 s accepted.
  | Species H :    hydro orbital   1 s accepted.
  | Species H :    hydro orbital   2 s accepted.
  | Species H :    hydro orbital   2 p accepted.
  | Species H :    hydro orbital   2 p accepted.
  | Species H :    hydro orbital   3 d accepted.
  | Species C :   atomic orbital   1 s accepted.
  | Species C :    hydro orbital   2 s accepted.
  | Species C :   atomic orbital   2 s accepted.
  | Species C :    hydro orbital   3 s accepted.
  | Species C :    hydro orbital   3 p accepted.
  | Species C :   atomic orbital   2 p accepted.
  | Species C :    hydro orbital   2 p accepted.
  | Species C :    hydro orbital   3 d accepted.
  | Species C :    hydro orbital   3 d accepted.
  | Species C :    hydro orbital   4 f accepted.
  | Species C :    hydro orbital   5 g accepted.
 
  Basis size parameters after reduction:
  | Total number of radial functions:       18
  | Total number of basis functions :     2832
 
  Per-task memory consumption for arrays in subroutine allocate_ext:
  |           4.478776MB.
  Testing on-site integration grid accuracy.
  |  Species  Function  <phi|h_atom|phi> (log., in eV)  <phi|h_atom|phi> (rad., in eV)
           1        1                 -6.4870767962                 -6.4871688290
           1        2                 13.5032046589                 13.5028982997
           1        3                 32.8195184817                 32.8119941656
           1        4                 33.8513856511                 33.7670005767 ***
           1        5                 28.8544614965                 28.8544615203
           1        6                 59.6326952547                 59.6327656460
           1        7                 60.2719308513                 60.2719305949
           2        8               -273.4529726040               -273.4529710464
           2        9                -10.7721037319                -10.7721022101
           2       10                 17.6044132601                 17.6044162063
           2       11                 53.7706460658                 53.7706913770
           2       12                 15.0973290362                 15.0973256030
           2       13                  3.8545134692                  3.8545724687
           2       14                 12.1156992592                 12.1182024431
           2       15                 29.4352039302                 29.4352041816
           2       16                 54.8741144708                 54.8740268729
           2       17                 59.3556032049                 59.3556031382
           2       18                 93.4551837154                 93.4551838009
 * Note: Onsite integrals marked "***" above are less accurate than
 * onsite_accuracy_threshold =    0.03000 eV. Usually, this is harmless.
 * When in doubt, tighten the "radial" and/or "radial_multiplier" flags to check.

  Preparing densities etc. for the partition functions (integrals / Hartree potential).

  Preparations completed.
  max(cpu_time)          :      0.199 s.
  Wall clock time (cpu1) :      0.185 s.
------------------------------------------------------------

------------------------------------------------------------
          Begin self-consistency loop: Initialization.

          Date     :  20210620, Time     :  175557.011
------------------------------------------------------------

  Initializing index lists of integration centers etc. from given atomic structure:
  | Number of centers in hartree potential         :        96
  | Number of centers in hartree multipole         :        96
  | Number of centers in electron density summation:        96
  | Number of centers in basis integrals           :        96
  | Number of centers in integrals                 :        96
  | Number of centers in hamiltonian               :        96
  * Using 56 tasks for Scalapack Eigenvalue solver.
  Detailed listing of tasks and assigned k-points:
  (for non-periodic systems, the "k-point" denotes an internal label only)
   Task     0 k-point     1 on f001
   Task     1 k-point     1 on f001
   Task     2 k-point     1 on f001
   Task     3 k-point     1 on f001
   Task     4 k-point     1 on f001
   Task     5 k-point     1 on f001
   Task     6 k-point     1 on f001
   Task     7 k-point     1 on f001
   Task     8 k-point     1 on f001
   Task     9 k-point     1 on f001
   Task    10 k-point     1 on f001
   Task    11 k-point     1 on f001
   Task    12 k-point     1 on f001
   Task    13 k-point     1 on f001
   Task    14 k-point     1 on f001
   Task    15 k-point     1 on f001
   Task    16 k-point     1 on f001
   Task    17 k-point     1 on f001
   Task    18 k-point     1 on f001
   Task    19 k-point     1 on f001
   Task    20 k-point     1 on f001
   Task    21 k-point     1 on f001
   Task    22 k-point     1 on f001
   Task    23 k-point     1 on f001
   Task    24 k-point     1 on f001
   Task    25 k-point     1 on f001
   Task    26 k-point     1 on f001
   Task    27 k-point     1 on f001
   Task    28 k-point     1 on f001
   Task    29 k-point     1 on f001
   Task    30 k-point     1 on f001
   Task    31 k-point     1 on f001
   Task    32 k-point     1 on f001
   Task    33 k-point     1 on f001
   Task    34 k-point     1 on f001
   Task    35 k-point     1 on f001
   Task    36 k-point     1 on f001
   Task    37 k-point     1 on f001
   Task    38 k-point     1 on f001
   Task    39 k-point     1 on f001
   Task    40 k-point     1 on f001
   Task    41 k-point     1 on f001
   Task    42 k-point     1 on f001
   Task    43 k-point     1 on f001
   Task    44 k-point     1 on f001
   Task    45 k-point     1 on f001
   Task    46 k-point     1 on f001
   Task    47 k-point     1 on f001
   Task    48 k-point     1 on f001
   Task    49 k-point     1 on f001
   Task    50 k-point     1 on f001
   Task    51 k-point     1 on f001
   Task    52 k-point     1 on f001
   Task    53 k-point     1 on f001
   Task    54 k-point     1 on f001
   Task    55 k-point     1 on f001
  Tasks:    56 split into      8 X      7 BLACS grid
  Calculating block size based on n_basis =         2832 max_nprow =            8 max_npcol =            7
  ScaLAPACK block size set to:           16
  Allocating        1.225 MB for ovlp
  Allocating        1.225 MB for ham
  Allocating        1.225 MB for eigenvec
  Required Scalapack workspace - INTEGER:            1 REAL:             1
  Partitioning the integration grid into batches with parallel hashing+maxmin method.
  | Number of batches:    13869
  | Maximal batch size:     200
  | Minimal batch size:       4
  | Average batch size:     115.194
  | Standard deviation of batch sizes:      33.589

  Integration load balanced across     56 MPI tasks.
  Work distribution over tasks is as follows:
  Task      0 has      28646 integration points.
  Task      1 has      28657 integration points.
  Task      2 has      28361 integration points.
  Task      3 has      28652 integration points.
  Task      4 has      28464 integration points.
  Task      5 has      28488 integration points.
  Task      6 has      28483 integration points.
  Task      7 has      28593 integration points.
  Task      8 has      28629 integration points.
  Task      9 has      28436 integration points.
  Task     10 has      28599 integration points.
  Task     11 has      28439 integration points.
  Task     12 has      28585 integration points.
  Task     13 has      28410 integration points.
  Task     14 has      28647 integration points.
  Task     15 has      28568 integration points.
  Task     16 has      28480 integration points.
  Task     17 has      28580 integration points.
  Task     18 has      28545 integration points.
  Task     19 has      28553 integration points.
  Task     20 has      28398 integration points.
  Task     21 has      28580 integration points.
  Task     22 has      28580 integration points.
  Task     23 has      28491 integration points.
  Task     24 has      28550 integration points.
  Task     25 has      28505 integration points.
  Task     26 has      28506 integration points.
  Task     27 has      28427 integration points.
  Task     28 has      28585 integration points.
  Task     29 has      28615 integration points.
  Task     30 has      28506 integration points.
  Task     31 has      28598 integration points.
  Task     32 has      28595 integration points.
  Task     33 has      28550 integration points.
  Task     34 has      28371 integration points.
  Task     35 has      28646 integration points.
  Task     36 has      28547 integration points.
  Task     37 has      28487 integration points.
  Task     38 has      28611 integration points.
  Task     39 has      28423 integration points.
  Task     40 has      28496 integration points.
  Task     41 has      28429 integration points.
  Task     42 has      28582 integration points.
  Task     43 has      28588 integration points.
  Task     44 has      28459 integration points.
  Task     45 has      28590 integration points.
  Task     46 has      28590 integration points.
  Task     47 has      28552 integration points.
  Task     48 has      28380 integration points.
  Task     49 has      28649 integration points.
  Task     50 has      28545 integration points.
  Task     51 has      28486 integration points.
  Task     52 has      28525 integration points.
  Task     53 has      28447 integration points.
  Task     54 has      28486 integration points.
  Task     55 has      28434 integration points.
  Initializing partition tables, free-atom densities, potentials, etc. across the integration grid (initialize_grid_storage).
  | initialize_grid_storage: Actual outermost partition radius vs. multipole_radius_free
  | (-- VB: in principle, multipole_radius_free should be larger, hence this output)
  | Species        1: Confinement radius =              6.000000000000000 AA, multipole_radius_free =              6.071692442739658 AA.
  | Species        1: outer_partition_radius set to              6.071692442739658 AA .
  | Species        2: Confinement radius =              6.000000000000000 AA, multipole_radius_free =              6.029870734432609 AA.
  | Species        2: outer_partition_radius set to              6.029870734432609 AA .
  | The sparse table of interatomic distances needs    109.8040 kbyte instead of    73.7280 kbyte of memory.
  | Using the partition_type stratmann_smoother will reduce your memory usage.
  | Net number of integration points:  1597624
  | of which are non-zero points    :  1231236
  Renormalizing the initial density to the exact electron count on the 3D integration grid.
  | Initial density: Formal number of electrons (from input files) :     386.0000000000
  | Integrated number of electrons on 3D grid     :     385.9990088308
  | Charge integration error                      :      -0.0009911692
  | Normalization factor for density and gradient :       1.0000025678
  Obtaining max. number of non-zero basis functions in each batch (get_n_compute_maxes).
  | Maximal number of non-zero basis functions:     1358
  Selecting the method for density update.
  Loop over occupied states selected for charge density update.
  Hamiltonian matrix size:
  | Size of matrix non-packed:               4011528
  | Size of matrix packed:         3142440
  Allocating        9.606 MB for KS_eigenvector
  use_local_index: Max. local matrix size =      2158798
  Task:     0 matrix size:     361929
  Task:     1 matrix size:     514793
  Task:     2 matrix size:    1012923
  Task:     3 matrix size:     850144
  Task:     4 matrix size:    1329723
  Task:     5 matrix size:    2158798
  Task:     6 matrix size:    1941529
  Task:     7 matrix size:     501935
  Task:     8 matrix size:     757065
  Task:     9 matrix size:    1059038
  Task:    10 matrix size:     614834
  Task:    11 matrix size:     450320
  Task:    12 matrix size:    1741674
  Task:    13 matrix size:    1088665
  Task:    14 matrix size:     755995
  Task:    15 matrix size:     763217
  Task:    16 matrix size:     426221
  Task:    17 matrix size:    1900180
  Task:    18 matrix size:    1898798
  Task:    19 matrix size:    1076850
  Task:    20 matrix size:    1042466
  Task:    21 matrix size:     690562
  Task:    22 matrix size:     564857
  Task:    23 matrix size:     434064
  Task:    24 matrix size:    1787603
  Task:    25 matrix size:    1564022
  Task:    26 matrix size:     767517
  Task:    27 matrix size:     379369
  Task:    28 matrix size:     967813
  Task:    29 matrix size:    1326990
  Task:    30 matrix size:    1656938
  Task:    31 matrix size:     230142
  Task:    32 matrix size:     414437
  Task:    33 matrix size:     404064
  Task:    34 matrix size:     827417
  Task:    35 matrix size:    1691515
  Task:    36 matrix size:     800958
  Task:    37 matrix size:    1454104
  Task:    38 matrix size:     464522
  Task:    39 matrix size:     201105
  Task:    40 matrix size:    1127759
  Task:    41 matrix size:     920079
  Task:    42 matrix size:    1543056
  Task:    43 matrix size:     748817
  Task:    44 matrix size:    1172784
  Task:    45 matrix size:     663411
  Task:    46 matrix size:    1073100
  Task:    47 matrix size:     558010
  Task:    48 matrix size:     379797
  Task:    49 matrix size:    2089047
  Task:    50 matrix size:    1688578
  Task:    51 matrix size:    1642210
  Task:    52 matrix size:     891188
  Task:    53 matrix size:     851288
  Task:    54 matrix size:     592851
  Task:    55 matrix size:     405924
  Integrating Hamiltonian matrix: batch-based integration.
  Time summed over all CPUs for integration: real work      447.590 s, elapsed      882.238 s
  Time get_set_sparse_local_matrix_scalapack:     0.044113 s
  Start compute_balanced_batch_distribution
  Done load balancing, time needed:      0.016 s
  Integrating overlap matrix with loadbalancing
  Time summed over all CPUs for integration: real work      133.503 s, elapsed      156.271 s
  Time get_set_full_local_matrix_scalapack:     0.051286 s

  Updating Kohn-Sham eigenvalues and eigenvectors using ELSI and the ELPA eigensolver.
  Overlap matrix is not singular
  | Lowest and highest eigenvalues :  0.14E+02,  0.88E-04
  Finished singularity check of overlap matrix
  | Time :     0.302 s
  Finished Cholesky decomposition
  | Time :     0.062 s
  Finished transformation to standard eigenproblem
  | Time :     0.098 s
  Starting ELPA eigensolver
  Finished solving standard eigenproblem
  | Time :     0.340 s
  Finished back-transformation of eigenvectors
  | Time :     0.017 s

  Obtaining occupation numbers and chemical potential using ELSI.
  | Chemical potential (Fermi level):    -7.74261526 eV
  Writing Kohn-Sham eigenvalues.

  State    Occupation    Eigenvalue [Ha]    Eigenvalue [eV]
      1       2.00000         -10.180604         -277.02833
      2       2.00000         -10.179657         -277.00257
      3       2.00000         -10.178796         -276.97912
      4       2.00000         -10.177921         -276.95533
      5       2.00000         -10.177612         -276.94692
      6       2.00000         -10.177481         -276.94335
      7       2.00000         -10.177471         -276.94309
      8       2.00000         -10.176999         -276.93024
      9       2.00000         -10.176619         -276.91989
     10       2.00000         -10.176516         -276.91708
     11       2.00000         -10.176485         -276.91625
     12       2.00000         -10.176380         -276.91338
     13       2.00000         -10.176344         -276.91240
     14       2.00000         -10.176212         -276.90881
     15       2.00000         -10.176034         -276.90397
     16       2.00000         -10.175805         -276.89775
     17       2.00000         -10.175798         -276.89755
     18       2.00000         -10.175779         -276.89704
     19       2.00000         -10.175733         -276.89578
     20       2.00000         -10.175464         -276.88846
     21       2.00000         -10.175435         -276.88768
     22       2.00000         -10.174949         -276.87446
     23       2.00000         -10.174769         -276.86956
     24       2.00000         -10.174759         -276.86929
     25       2.00000         -10.174605         -276.86508
     26       2.00000         -10.174557         -276.86378
     27       2.00000         -10.174495         -276.86209
     28       2.00000         -10.174259         -276.85567
     29       2.00000         -10.174017         -276.84909
     30       2.00000         -10.173729         -276.84126
     31       2.00000         -10.173201         -276.82688
     32       2.00000         -10.173148         -276.82544
     33       2.00000         -10.173062         -276.82310
     34       2.00000         -10.172702         -276.81331
     35       2.00000         -10.172502         -276.80785
     36       2.00000         -10.171867         -276.79059
     37       2.00000         -10.170778         -276.76096
     38       2.00000         -10.169067         -276.71438
     39       2.00000         -10.168606         -276.70184
     40       2.00000         -10.168367         -276.69535
     41       2.00000         -10.168141         -276.68919
     42       2.00000         -10.167588         -276.67416
     43       2.00000         -10.166819         -276.65322
     44       2.00000         -10.165243         -276.61035
     45       2.00000         -10.165025         -276.60442
     46       2.00000         -10.164175         -276.58127
     47       2.00000         -10.162998         -276.54924
     48       2.00000         -10.161987         -276.52173
     49       2.00000         -10.161888         -276.51904
     50       2.00000         -10.161702         -276.51398
     51       2.00000         -10.161025         -276.49556
     52       2.00000         -10.160441         -276.47966
     53       2.00000         -10.159355         -276.45011
     54       2.00000         -10.158858         -276.43659
     55       2.00000         -10.158556         -276.42838
     56       2.00000         -10.158521         -276.42742
     57       2.00000         -10.157674         -276.40438
     58       2.00000         -10.157575         -276.40167
     59       2.00000          -1.022895          -27.83440
     60       2.00000          -1.015704          -27.63870
     61       2.00000          -1.010784          -27.50484
     62       2.00000          -1.008702          -27.44819
     63       2.00000          -1.007030          -27.40269
     64       2.00000          -1.005244          -27.35409
     65       2.00000          -1.003460          -27.30554
     66       2.00000          -0.993384          -27.03136
     67       2.00000          -0.991678          -26.98492
     68       2.00000          -0.965893          -26.28328
     69       2.00000          -0.936195          -25.47516
     70       2.00000          -0.927775          -25.24603
     71       2.00000          -0.920225          -25.04059
     72       2.00000          -0.912546          -24.83163
     73       2.00000          -0.899051          -24.46442
     74       2.00000          -0.898505          -24.44956
     75       2.00000          -0.897124          -24.41200
     76       2.00000          -0.895717          -24.37369
     77       2.00000          -0.894862          -24.35042
     78       2.00000          -0.892740          -24.29270
     79       2.00000          -0.892169          -24.27716
     80       2.00000          -0.889743          -24.21115
     81       2.00000          -0.889437          -24.20280
     82       2.00000          -0.887638          -24.15385
     83       2.00000          -0.883751          -24.04810
     84       2.00000          -0.869486          -23.65991
     85       2.00000          -0.860522          -23.41598
     86       2.00000          -0.855992          -23.29272
     87       2.00000          -0.840274          -22.86503
     88       2.00000          -0.795363          -21.64292
     89       2.00000          -0.782143          -21.28319
     90       2.00000          -0.776836          -21.13878
     91       2.00000          -0.773323          -21.04318
     92       2.00000          -0.761270          -20.71521
     93       2.00000          -0.758267          -20.63349
     94       2.00000          -0.757132          -20.60260
     95       2.00000          -0.756324          -20.58062
     96       2.00000          -0.754166          -20.52190
     97       2.00000          -0.753040          -20.49125
     98       2.00000          -0.751132          -20.43934
     99       2.00000          -0.749666          -20.39944
    100       2.00000          -0.748731          -20.37400
    101       2.00000          -0.745834          -20.29517
    102       2.00000          -0.737118          -20.05800
    103       2.00000          -0.731570          -19.90704
    104       2.00000          -0.721888          -19.64359
    105       2.00000          -0.711525          -19.36158
    106       2.00000          -0.708739          -19.28578
    107       2.00000          -0.682506          -18.57194
    108       2.00000          -0.674985          -18.36726
    109       2.00000          -0.672727          -18.30584
    110       2.00000          -0.664300          -18.07651
    111       2.00000          -0.658819          -17.92738
    112       2.00000          -0.657978          -17.90448
    113       2.00000          -0.652014          -17.74222
    114       2.00000          -0.646775          -17.59965
    115       2.00000          -0.644779          -17.54533
    116       2.00000          -0.641038          -17.44353
    117       2.00000          -0.640459          -17.42778
    118       2.00000          -0.638416          -17.37219
    119       2.00000          -0.637835          -17.35636
    120       2.00000          -0.635306          -17.28754
    121       2.00000          -0.633618          -17.24162
    122       2.00000          -0.626898          -17.05877
    123       2.00000          -0.620090          -16.87351
    124       2.00000          -0.617438          -16.80133
    125       2.00000          -0.614074          -16.70979
    126       2.00000          -0.601714          -16.37348
    127       2.00000          -0.594517          -16.17764
    128       2.00000          -0.593085          -16.13866
    129       2.00000          -0.586260          -15.95294
    130       2.00000          -0.581879          -15.83373
    131       2.00000          -0.580099          -15.78529
    132       2.00000          -0.577850          -15.72410
    133       2.00000          -0.576972          -15.70020
    134       2.00000          -0.575184          -15.65156
    135       2.00000          -0.574447          -15.63150
    136       2.00000          -0.573803          -15.61397
    137       2.00000          -0.573447          -15.60429
    138       2.00000          -0.571865          -15.56124
    139       2.00000          -0.570060          -15.51211
    140       2.00000          -0.569857          -15.50660
    141       2.00000          -0.568520          -15.47022
    142       2.00000          -0.567994          -15.45592
    143       2.00000          -0.567022          -15.42945
    144       2.00000          -0.565900          -15.39892
    145       2.00000          -0.565524          -15.38870
    146       2.00000          -0.557504          -15.17044
    147       2.00000          -0.548910          -14.93660
    148       2.00000          -0.540097          -14.69679
    149       2.00000          -0.529583          -14.41069
    150       2.00000          -0.523656          -14.24940
    151       2.00000          -0.522919          -14.22935
    152       2.00000          -0.520769          -14.17086
    153       2.00000          -0.517904          -14.09288
    154       2.00000          -0.515282          -14.02154
    155       2.00000          -0.512493          -13.94563
    156       2.00000          -0.511972          -13.93147
    157       2.00000          -0.510155          -13.88201
    158       2.00000          -0.508439          -13.83534
    159       2.00000          -0.508197          -13.82875
    160       2.00000          -0.505850          -13.76487
    161       2.00000          -0.502416          -13.67142
    162       2.00000          -0.501187          -13.63800
    163       2.00000          -0.500993          -13.63270
    164       2.00000          -0.498837          -13.57404
    165       2.00000          -0.497269          -13.53138
    166       2.00000          -0.496743          -13.51707
    167       2.00000          -0.496347          -13.50628
    168       2.00000          -0.494839          -13.46524
    169       2.00000          -0.494177          -13.44725
    170       2.00000          -0.492794          -13.40961
    171       2.00000          -0.491612          -13.37746
    172       2.00000          -0.485395          -13.20827
    173       2.00000          -0.479255          -13.04119
    174       2.00000          -0.461300          -12.55261
    175       2.00000          -0.431932          -11.75346
    176       2.00000          -0.425043          -11.56601
    177       2.00000          -0.423410          -11.52158
    178       2.00000          -0.421413          -11.46723
    179       2.00000          -0.420208          -11.43443
    180       2.00000          -0.419612          -11.41823
    181       2.00000          -0.415815          -11.31489
    182       2.00000          -0.412472          -11.22393
    183       2.00000          -0.408640          -11.11966
    184       2.00000          -0.406253          -11.05471
    185       2.00000          -0.404673          -11.01171
    186       2.00000          -0.402603          -10.95538
    187       2.00000          -0.401267          -10.91902
    188       2.00000          -0.396814          -10.79785
    189       2.00000          -0.390458          -10.62491
    190       2.00000          -0.386011          -10.50390
    191       2.00000          -0.380847          -10.36339
    192       2.00000          -0.368742          -10.03398
    193       2.00000          -0.352101           -9.58115
    194       0.00000          -0.263679           -7.17507
    195       0.00000          -0.241659           -6.57588
    196       0.00000          -0.235282           -6.40234
    197       0.00000          -0.224271           -6.10273
    198       0.00000          -0.222932           -6.06628
    199       0.00000          -0.220037           -5.98752
    200       0.00000          -0.219120           -5.96255
    201       0.00000          -0.216632           -5.89485
    202       0.00000          -0.215261           -5.85754
    203       0.00000          -0.210097           -5.71702
    204       0.00000          -0.209165           -5.69166
    205       0.00000          -0.207351           -5.64231
    206       0.00000          -0.204863           -5.57461
    207       0.00000          -0.201153           -5.47365
    208       0.00000          -0.197506           -5.37442
    209       0.00000          -0.194138           -5.28276
    210       0.00000          -0.192259           -5.23163
    211       0.00000          -0.173607           -4.72408
    212       0.00000          -0.162846           -4.43126
    213       0.00000          -0.133547           -3.63401
    214       0.00000          -0.097863           -2.66299
    215       0.00000          -0.089277           -2.42935
    216       0.00000          -0.082029           -2.23213
    217       0.00000          -0.077013           -2.09563
    218       0.00000          -0.076899           -2.09253
    219       0.00000          -0.075588           -2.05686
    220       0.00000          -0.073130           -1.98996
    221       0.00000          -0.071426           -1.94361
    222       0.00000          -0.069629           -1.89470
    223       0.00000          -0.067896           -1.84756
    224       0.00000          -0.066765           -1.81676
    225       0.00000          -0.062452           -1.69940
    226       0.00000          -0.061280           -1.66752
    227       0.00000          -0.060572           -1.64824
    228       0.00000          -0.059123           -1.60881
    229       0.00000          -0.055297           -1.50472
    230       0.00000          -0.054410           -1.48058
    231       0.00000          -0.050346           -1.36997
    232       0.00000          -0.049777           -1.35450
    233       0.00000          -0.045565           -1.23989
    234       0.00000          -0.040978           -1.11508
    235       0.00000          -0.036981           -1.00631
    236       0.00000          -0.035414           -0.96366
    237       0.00000          -0.033020           -0.89852
    238       0.00000          -0.028533           -0.77642
    239       0.00000          -0.025641           -0.69774
    240       0.00000          -0.024935           -0.67853
    241       0.00000          -0.021783           -0.59274
    242       0.00000          -0.020876           -0.56806
    243       0.00000          -0.020643           -0.56172
    244       0.00000          -0.018656           -0.50765
    245       0.00000          -0.016360           -0.44518
    246       0.00000          -0.015301           -0.41637
    247       0.00000          -0.013949           -0.37956
    248       0.00000          -0.013176           -0.35855
    249       0.00000          -0.011006           -0.29950
    250       0.00000          -0.008653           -0.23546
    251       0.00000          -0.007096           -0.19309
    252       0.00000          -0.004865           -0.13239
    253       0.00000           0.000886            0.02411
    254       0.00000           0.002923            0.07954
    255       0.00000           0.005824            0.15849
    256       0.00000           0.007181            0.19541
    257       0.00000           0.008672            0.23599
    258       0.00000           0.009565            0.26029
    259       0.00000           0.011802            0.32114
    260       0.00000           0.012321            0.33528
    261       0.00000           0.015532            0.42264
    262       0.00000           0.017466            0.47528
    263       0.00000           0.018989            0.51672
    264       0.00000           0.021883            0.59547
    265       0.00000           0.023673            0.64418
    266       0.00000           0.025595            0.69648
    267       0.00000           0.029372            0.79925
    268       0.00000           0.029713            0.80852
    269       0.00000           0.032228            0.87696
    270       0.00000           0.034288            0.93303
    271       0.00000           0.035358            0.96214
    272       0.00000           0.039159            1.06558
    273       0.00000           0.040011            1.08874
    274       0.00000           0.041680            1.13416
    275       0.00000           0.043303            1.17833
    276       0.00000           0.046216            1.25760
    277       0.00000           0.047976            1.30549
    278       0.00000           0.049012            1.33368
    279       0.00000           0.053252            1.44907
    280       0.00000           0.054423            1.48093
    281       0.00000           0.055287            1.50444
    282       0.00000           0.055559            1.51183
    283       0.00000           0.058738            1.59833
    284       0.00000           0.058962            1.60444
    285       0.00000           0.060431            1.64442
    286       0.00000           0.062814            1.70926
    287       0.00000           0.065028            1.76950
    288       0.00000           0.066122            1.79928
    289       0.00000           0.068907            1.87505
    290       0.00000           0.070563            1.92012
    291       0.00000           0.071435            1.94386
    292       0.00000           0.074685            2.03228
    293       0.00000           0.075094            2.04341
    294       0.00000           0.075853            2.06407
    295       0.00000           0.076418            2.07944
    296       0.00000           0.077599            2.11158
    297       0.00000           0.080055            2.17841
    298       0.00000           0.080959            2.20300
    299       0.00000           0.082424            2.24288
    300       0.00000           0.082776            2.25245
    301       0.00000           0.084138            2.28950
    302       0.00000           0.084843            2.30869
    303       0.00000           0.087815            2.38958
    304       0.00000           0.088687            2.41331
    305       0.00000           0.090218            2.45496
    306       0.00000           0.091262            2.48337
    307       0.00000           0.092667            2.52160
    308       0.00000           0.092982            2.53017
    309       0.00000           0.095578            2.60080
    310       0.00000           0.096708            2.63156
    311       0.00000           0.098917            2.69166
    312       0.00000           0.099665            2.71202
    313       0.00000           0.099998            2.72109
    314       0.00000           0.102697            2.79452
    315       0.00000           0.103980            2.82943
    316       0.00000           0.104533            2.84448
    317       0.00000           0.106013            2.88477
    318       0.00000           0.107064            2.91336
    319       0.00000           0.109200            2.97148
    320       0.00000           0.112055            3.04918
    321       0.00000           0.112748            3.06802
    322       0.00000           0.113850            3.09801
    323       0.00000           0.115922            3.15439
    324       0.00000           0.116922            3.18160
    325       0.00000           0.117964            3.20996
    326       0.00000           0.119621            3.25506
    327       0.00000           0.121166            3.29708
    328       0.00000           0.122325            3.32864
    329       0.00000           0.123574            3.36263
    330       0.00000           0.123997            3.37413
    331       0.00000           0.125339            3.41065
    332       0.00000           0.128634            3.50032
    333       0.00000           0.129312            3.51876
    334       0.00000           0.129880            3.53421
    335       0.00000           0.132208            3.59757
    336       0.00000           0.133614            3.63583
    337       0.00000           0.135250            3.68035
    338       0.00000           0.135923            3.69865
    339       0.00000           0.138599            3.77148
    340       0.00000           0.138924            3.78033
    341       0.00000           0.140553            3.82464
    342       0.00000           0.142184            3.86902
    343       0.00000           0.144111            3.92147
    344       0.00000           0.145542            3.96040
    345       0.00000           0.147534            4.01461
    346       0.00000           0.148762            4.04803
    347       0.00000           0.150156            4.08596
    348       0.00000           0.151749            4.12931
    349       0.00000           0.154968            4.21688
    350       0.00000           0.155377            4.22803
    351       0.00000           0.157823            4.29459
    352       0.00000           0.159405            4.33764
    353       0.00000           0.159767            4.34747
    354       0.00000           0.162535            4.42281
    355       0.00000           0.162873            4.43200
    356       0.00000           0.164653            4.48044
    357       0.00000           0.166541            4.53181
    358       0.00000           0.168565            4.58690
    359       0.00000           0.168999            4.59869
    360       0.00000           0.170780            4.64715
    361       0.00000           0.172359            4.69012
    362       0.00000           0.173117            4.71077
    363       0.00000           0.175298            4.77009
    364       0.00000           0.175934            4.78741
    365       0.00000           0.177029            4.81721
    366       0.00000           0.177646            4.83399
    367       0.00000           0.180059            4.89965
    368       0.00000           0.181166            4.92978
    369       0.00000           0.183655            4.99749
    370       0.00000           0.184762            5.02762
    371       0.00000           0.186247            5.06804
    372       0.00000           0.186581            5.07712
    373       0.00000           0.188422            5.12723
    374       0.00000           0.190210            5.17588
    375       0.00000           0.192578            5.24030
    376       0.00000           0.195050            5.30758
    377       0.00000           0.196170            5.33806
    378       0.00000           0.197850            5.38377
    379       0.00000           0.199518            5.42917
    380       0.00000           0.201874            5.49326
    381       0.00000           0.202620            5.51356
    382       0.00000           0.204305            5.55941
    383       0.00000           0.205991            5.60529
    384       0.00000           0.207244            5.63940
    385       0.00000           0.208945            5.68569
    386       0.00000           0.210719            5.73397
    387       0.00000           0.212031            5.76965
    388       0.00000           0.213651            5.81374
    389       0.00000           0.214219            5.82918
    390       0.00000           0.216080            5.87983
    391       0.00000           0.217373            5.91501
    392       0.00000           0.218125            5.93549
    393       0.00000           0.221761            6.03442
    394       0.00000           0.223051            6.06952
    395       0.00000           0.224068            6.09719
    396       0.00000           0.226737            6.16983
    397       0.00000           0.228603            6.22060
    398       0.00000           0.230630            6.27576
    399       0.00000           0.232969            6.33940
    400       0.00000           0.233387            6.35079
    401       0.00000           0.236400            6.43278
    402       0.00000           0.237799            6.47084
    403       0.00000           0.240343            6.54007
    404       0.00000           0.241937            6.58345
    405       0.00000           0.244157            6.64384
    406       0.00000           0.244313            6.64810
    407       0.00000           0.249532            6.79012
    408       0.00000           0.250968            6.82920
    409       0.00000           0.251294            6.83806
    410       0.00000           0.253060            6.88611
    411       0.00000           0.254467            6.92440
    412       0.00000           0.260790            7.09646
    413       0.00000           0.262783            7.15069
[...]
    254       0.00000           0.099747            2.71427
    255       0.00000           0.103096            2.80539
    256       0.00000           0.103674            2.82111
    257       0.00000           0.107557            2.92679
    258       0.00000           0.108186            2.94388
    259       0.00000           0.110077            2.99535
    260       0.00000           0.111184            3.02547
    261       0.00000           0.113404            3.08589
    262       0.00000           0.115224            3.13540
    263       0.00000           0.117721            3.20336
    264       0.00000           0.120914            3.29022
    265       0.00000           0.122825            3.34224
    266       0.00000           0.124301            3.38242
    267       0.00000           0.126071            3.43056
    268       0.00000           0.127679            3.47433
    269       0.00000           0.129209            3.51597
    270       0.00000           0.140800            3.83137
    271       0.00000           0.143646            3.90882
    272       0.00000           0.150071            4.08365
    273       0.00000           0.152188            4.14125
    274       0.00000           0.154465            4.20320
    275       0.00000           0.155124            4.22115
    276       0.00000           0.157093            4.27472
    277       0.00000           0.159901            4.35112
    278       0.00000           0.160972            4.38027
    279       0.00000           0.163329            4.44441
    280       0.00000           0.166376            4.52731
    281       0.00000           0.168396            4.58228
    282       0.00000           0.168924            4.59666
    283       0.00000           0.170649            4.64360
    284       0.00000           0.172714            4.69979
    285       0.00000           0.175250            4.76879
    286       0.00000           0.176355            4.79887
    287       0.00000           0.177281            4.82406
    288       0.00000           0.178134            4.84729
    289       0.00000           0.179208            4.87649
    290       0.00000           0.180400            4.90895
    291       0.00000           0.181019            4.92578
    292       0.00000           0.182070            4.95438
    293       0.00000           0.182585            4.96838
    294       0.00000           0.184197            5.01226
    295       0.00000           0.187113            5.09160
    296       0.00000           0.187827            5.11104
    297       0.00000           0.188419            5.12715
    298       0.00000           0.189909            5.16770
    299       0.00000           0.191405            5.20840
    300       0.00000           0.192242            5.23118
    301       0.00000           0.195378            5.31650
    302       0.00000           0.196690            5.35221
    303       0.00000           0.198319            5.39653
    304       0.00000           0.199487            5.42832
    305       0.00000           0.200566            5.45769
    306       0.00000           0.203162            5.52831
    307       0.00000           0.204957            5.57716
    308       0.00000           0.205906            5.60299
    309       0.00000           0.207256            5.63973
    310       0.00000           0.207646            5.65033
    311       0.00000           0.209756            5.70775
    312       0.00000           0.211164            5.74607
    313       0.00000           0.213645            5.81359
    314       0.00000           0.217694            5.92375
    315       0.00000           0.219150            5.96339
    316       0.00000           0.219660            5.97725
    317       0.00000           0.220515            6.00052
    318       0.00000           0.220860            6.00990
    319       0.00000           0.222734            6.06090
    320       0.00000           0.223370            6.07820
    321       0.00000           0.224349            6.10485
    322       0.00000           0.226505            6.16351
    323       0.00000           0.226917            6.17472
    324       0.00000           0.227799            6.19873
    325       0.00000           0.229688            6.25014
    326       0.00000           0.229967            6.25771
    327       0.00000           0.231995            6.31290
    328       0.00000           0.235849            6.41778
    329       0.00000           0.236092            6.42438
    330       0.00000           0.237254            6.45600
    331       0.00000           0.238079            6.47847
    332       0.00000           0.238408            6.48740
    333       0.00000           0.240408            6.54183
    334       0.00000           0.242800            6.60691
    335       0.00000           0.243370            6.62244
    336       0.00000           0.245427            6.67842
    337       0.00000           0.246790            6.71549
    338       0.00000           0.247659            6.73913
    339       0.00000           0.249727            6.79540
    340       0.00000           0.250907            6.82752
    341       0.00000           0.251966            6.85635
    342       0.00000           0.254418            6.92306
    343       0.00000           0.256225            6.97223
    344       0.00000           0.257970            7.01971
    345       0.00000           0.258655            7.03836
    346       0.00000           0.260057            7.07652
    347       0.00000           0.261563            7.11750
    348       0.00000           0.263431            7.16831
    349       0.00000           0.265016            7.21146
    350       0.00000           0.265988            7.23790
    351       0.00000           0.267240            7.27196
    352       0.00000           0.268313            7.30116
    353       0.00000           0.268986            7.31948
    354       0.00000           0.270995            7.37416
    355       0.00000           0.274331            7.46494
    356       0.00000           0.275490            7.49647
    357       0.00000           0.277223            7.54362
    358       0.00000           0.278222            7.57081
    359       0.00000           0.280545            7.63401
    360       0.00000           0.282286            7.68140
    361       0.00000           0.284237            7.73447
    362       0.00000           0.285805            7.77715
    363       0.00000           0.287924            7.83481
    364       0.00000           0.288849            7.85997
    365       0.00000           0.290495            7.90476
    366       0.00000           0.292965            7.97198
    367       0.00000           0.294702            8.01926
    368       0.00000           0.296930            8.07988
    369       0.00000           0.298453            8.12132
    370       0.00000           0.299393            8.14689
    371       0.00000           0.302140            8.22165
    372       0.00000           0.303269            8.25237
    373       0.00000           0.304117            8.27545
    374       0.00000           0.305786            8.32085
    375       0.00000           0.306963            8.35290
    376       0.00000           0.307275            8.36138
    377       0.00000           0.308687            8.39981
    378       0.00000           0.309782            8.42960
    379       0.00000           0.311552            8.47776
    380       0.00000           0.312143            8.49385
    381       0.00000           0.314245            8.55105
    382       0.00000           0.318348            8.66268
    383       0.00000           0.320337            8.71682
    384       0.00000           0.322092            8.76458
    385       0.00000           0.325236            8.85011
    386       0.00000           0.328223            8.93142
    387       0.00000           0.329789            8.97401
    388       0.00000           0.331755            9.02752
    389       0.00000           0.332420            9.04560
    390       0.00000           0.336475            9.15595
    391       0.00000           0.339940            9.25024
    392       0.00000           0.341577            9.29479
    393       0.00000           0.344775            9.38180
    394       0.00000           0.346829            9.43770
    395       0.00000           0.347705            9.46154
    396       0.00000           0.349322            9.50553
    397       0.00000           0.352608            9.59496
    398       0.00000           0.353418            9.61699
    399       0.00000           0.354672            9.65110
    400       0.00000           0.355228            9.66625
    401       0.00000           0.357105            9.71732
    402       0.00000           0.357977            9.74104
    403       0.00000           0.361201            9.82879
    404       0.00000           0.363010            9.87801
    405       0.00000           0.364572            9.92051
    406       0.00000           0.367645           10.00413
    407       0.00000           0.368793           10.03537
    408       0.00000           0.369594           10.05716
    409       0.00000           0.374662           10.19507
    410       0.00000           0.376853           10.25468
    411       0.00000           0.379633           10.33035
    412       0.00000           0.380215           10.34617
    413       0.00000           0.384288           10.45702
    414       0.00000           0.387302           10.53903
    415       0.00000           0.388187           10.56312
    416       0.00000           0.388635           10.57530
    417       0.00000           0.392388           10.67743
    418       0.00000           0.395018           10.74898
    419       0.00000           0.399282           10.86500
    420       0.00000           0.399664           10.87542
    421       0.00000           0.401703           10.93090
    422       0.00000           0.404568           11.00885
    423       0.00000           0.406505           11.06156
    424       0.00000           0.408273           11.10967

  Highest occupied state (VBM) at     -4.89632403 eV
  | Occupation number:      2.00000000

  Lowest unoccupied state (CBM) at    -2.56148176 eV
  | Occupation number:      0.00000000

  Overall HOMO-LUMO gap:      2.33484227 eV.

  Total energy components:
  | Sum of eigenvalues            :       -1268.28108999 Ha      -34511.68439375 eV
  | XC energy correction          :        -327.03480482 Ha       -8899.06981881 eV
  | XC potential correction       :         420.13291799 Ha       11432.39837240 eV
  | Free-atom electrostatic energy:        -971.52627338 Ha      -26436.57497692 eV
  | Hartree energy correction     :         -85.35496701 Ha       -2322.62682642 eV
  | Entropy correction            :           0.00000000 Ha           0.00000000 eV
  | ---------------------------
  | Total energy                  :       -2232.06421722 Ha      -60737.55764351 eV
  | Total energy, T -> 0          :       -2232.06421722 Ha      -60737.55764351 eV  <-- do not rely on this value for anything but (periodic) metals
  | Electronic free energy        :       -2232.06421722 Ha      -60737.55764351 eV

  Derived energy quantities:
  | Kinetic energy                :        2227.28181221 Ha       60607.42178180 eV
  | Electrostatic energy          :       -4132.31122461 Ha     -112445.90960650 eV
  | Energy correction for multipole
  | error in Hartree potential    :          -0.27638171 Ha          -7.52072896 eV
  | Sum of eigenvalues per atom                           :        -359.49671243 eV
  | Total energy (T->0) per atom                          :        -632.68289212 eV  <-- do not rely on this value for anything but (periodic) metals
  | Electronic free energy per atom                       :        -632.68289212 eV
  End evaluation of scaled ZORA corrections.
  | Time for scaled ZORA corrections           :       17.640 s          17.652 s
------------------------------------------------------------

  Energy and forces in a compact form:
  | Total energy uncorrected      :         -0.607375576435054E+05 eV
  | Total energy corrected        :         -0.607375576435054E+05 eV  <-- do not rely on this value for anything but (periodic) metals
  | Electronic free energy        :         -0.607375576435054E+05 eV

  ------------------------------------ 
  Start decomposition of the XC Energy 
  ------------------------------------ 
  X and C from original XC functional choice 
  Hartree-Fock Energy :          0.000000000 Ha              0.000000000 eV
  X Energy            :       -314.090920933 Ha          -8546.848817455 eV
  C Energy            :        -12.943883886 Ha           -352.221001356 eV
  Total XC Energy     :       -327.034804819 Ha          -8899.069818811 eV
  ------------------------------------ 
  LDA X and C from self-consistent density 
  X Energy LDA        :       -284.514279547 Ha          -7742.027456500 eV
  C Energy LDA        :        -24.896434203 Ha           -677.466443789 eV
  ------------------------------------ 
  End decomposition of the XC Energy 
  ------------------------------------ 

------------------------------------------------------------

------------------------------------------------------------------------------
  Final output of selected total energy values:

  The following output summarizes some interesting total energy values
  at the end of a run (AFTER all relaxation, molecular dynamics, etc.).

  | Total energy of the DFT / Hartree-Fock s.c.f. calculation      :         -60737.557643505 eV
  | Final zero-broadening corrected energy (caution - metals only) :         -60737.557643505 eV
  | For reference only, the value of 1 Hartree used in FHI-aims is :             27.211384500 eV

  Before relying on these values, please be sure to understand exactly which
  total energy value is referred to by a given number. Different objects may
  all carry the same name 'total energy'. Definitions:

  Total energy of the DFT / Hartree-Fock s.c.f. calculation:
  | Note that this energy does not include ANY quantities calculated after the
  | s.c.f. cycle, in particular not ANY RPA, MP2, etc. many-body perturbation terms.
  | Scalar relativistic effects have been included in the 'scaled ZORA' approximation.

  Final zero-broadening corrected energy:
  | For metallic systems only, a broadening of the occupation numbers at the Fermi
  | level can be extrapolated back to zero broadening by an electron-gas inspired
  | formula. For all systems that are not real metals, this value can be
  | meaningless and should be avoided.

------------------------------------------------------------------------------
  Methods described in the following list of references were used in this FHI-aims run.
  If you publish the results, please make sure to cite these reference if they apply.
  FHI-aims is an academic code, and for our developers (often, Ph.D. students
  and postdocs), scientific credit in the community is essential.
  Thank you for helping us!

  For any use of FHI-aims, please cite:

    Volker Blum, Ralf Gehrke, Felix Hanke, Paula Havu, Ville Havu,
    Xinguo Ren, Karsten Reuter, and Matthias Scheffler
    'Ab initio molecular simulations with numeric atom-centered orbitals'
    Computer Physics Communications 180, 2175-2196 (2009)
    http://dx.doi.org/10.1016/j.cpc.2009.06.022


  The scalable eigensolver library ELPA was used in your run.
  ELPA is essential especially for large systems on hundreds or thousands of CPUs.
  For ELPA, please cite:

    Andreas Marek, Volker Blum, Rainer Johanni, Ville Havu, Bruno Lang,
    Thomas Auckenthaler, Alexander Heinecke, Hans-Joachim Bungartz, and Hermann Lederer,
    'The ELPA Library - Scalable Parallel Eigenvalue Solutions
    for Electronic Structure Theory and Computational Science'
    The Journal of Physics: Condensed Matter 26, 213201 (2014).
    http://dx.doi.org/10.1088/0953-8984/26/21/213201


  The ELSI infrastructure was used in your run to solve the Kohn-Sham electronic structure.
  Please check out http://elsi-interchange.org to learn more.
  If scalability is important for your project, please acknowledge ELSI by citing:

    V. W-z. Yu, F. Corsetti, A. Garcia, W. P. Huhn, M. Jacquelin, W. Jia,
    B. Lange, L. Lin, J. Lu, W. Mi, A. Seifitokaldani, A. Vazquez-Mayagoitia,
    C. Yang, H. Yang, and V. Blum
    'ELSI: A unified software interface for Kohn-Sham electronic structure solvers'
    Computer Physics Communications 222, 267-285 (2018).
    http://dx.doi.org/10.1016/j.cpc.2017.09.007


  For the real-space grid partitioning and parallelization used in this calculation, please cite:

    Ville Havu, Volker Blum, Paula Havu, and Matthias Scheffler,
    'Efficient O(N) integration for all-electron electronic structure calculation'
    'using numerically tabulated basis functions'
    Journal of Computational Physics 228, 8367-8379 (2009).
    http://dx.doi.org/10.1016/j.jcp.2009.08.008

  Of course, there are many other important community references, e.g., those cited in the
  above references. Our list is limited to references that describe implementations in the
  FHI-aims code. The reason is purely practical (length of this list) - please credit others as well.

------------------------------------------------------------
          Leaving FHI-aims.
          Date     :  20210620, Time     :  180159.077

          Computational steps:
          | Number of self-consistency cycles          :           19
          | Number of SCF (re)initializations          :            1

          Detailed time accounting                     :  max(cpu_time)    wall_clock(cpu1)
          | Total time                                 :      362.114 s         362.459 s
          | Preparation time                           :        0.199 s           0.185 s
          | Boundary condition initalization           :        0.001 s           0.004 s
          | Grid partitioning                          :        1.868 s           1.872 s
          | Preloading free-atom quantities on grid    :        0.013 s           0.016 s
          | Free-atom superposition energy             :        0.213 s           0.214 s
          | Total time for integrations                :      198.630 s         198.652 s
          | Total time for solution of K.-S. equations :       12.196 s          12.220 s
          | Total time for density update              :       91.423 s          91.364 s
          | Total time for mixing                      :        0.324 s           0.325 s
          | Total time for Hartree multipole update    :        0.331 s           0.342 s
          | Total time for Hartree multipole sum       :       35.916 s          35.917 s
          | Total time for total energy evaluation     :        0.011 s           0.036 s
          | Total time for scaled ZORA corrections     :       17.640 s          17.652 s

          Partial memory accounting:
          | Residual value for overall tracked memory usage across tasks :     0.000000 MB (should be 0.000000 MB)
          | Peak values for overall tracked memory usage (after allocating zora_vector2):
          |   Minimum:       51.830 MB (on task 40)
          |   Maximum:       73.463 MB (on task  6)
          |   Average:       60.669 MB
          | Largest tracked array allocation (hamiltonian_shell):
          |   Minimum:       14.753 MB (on task  1)
          |   Maximum:       17.347 MB (on task  6)
          |   Average:       14.905 MB
          Note:  These values currently only include a subset of arrays which are explicitly tracked.
          The "true" memory usage will be greater.

          Have a nice day.
------------------------------------------------------------
