  MPI-parallelism will be employed.
------------------------------------------------------------
          Invoking FHI-aims ...
          Version 180607
          Git rev. (modified): 6724847 Fix JSON memory corruption in scf_solver
          Compiled on 2018/06/27 at 16:00:31 on host coe.psc.edu.

          When using FHI-aims, please cite the following reference:

          Volker Blum, Ralf Gehrke, Felix Hanke, Paula Havu,
          Ville Havu, Xinguo Ren, Karsten Reuter, and Matthias Scheffler,
          'Ab Initio Molecular Simulations with Numeric Atom-Centered Orbitals',
          Computer Physics Communications 180, 2175-2196 (2009)

          For any questions about FHI-aims, please visit the aimsclub website
          with its forums and wiki. Contributions to both the forums and the
          wiki are warmly encouraged - they are for you, and everyone is welcome there.

------------------------------------------------------------



  Date     :  20210620, Time     :  165850.177
  Time zero on CPU 1             :   0.195022000000000E+00  s.
  Internal wall clock time zero  :           393440330.177  s.

  FHI-aims created a unique identifier for this run for later identification
  aims_uuid : 683A6180-79DD-42F0-AAFF-B148C5F62861

  Using       56 parallel tasks.
  Task        0 on host d021 reporting.
  Task        1 on host d021 reporting.
  Task        2 on host d021 reporting.
  Task        3 on host d021 reporting.
  Task        4 on host d021 reporting.
  Task        5 on host d021 reporting.
  Task        6 on host d021 reporting.
  Task        7 on host d021 reporting.
  Task        8 on host d021 reporting.
  Task        9 on host d021 reporting.
  Task       10 on host d021 reporting.
  Task       11 on host d021 reporting.
  Task       12 on host d021 reporting.
  Task       13 on host d021 reporting.
  Task       14 on host d021 reporting.
  Task       15 on host d021 reporting.
  Task       16 on host d021 reporting.
  Task       17 on host d021 reporting.
  Task       18 on host d021 reporting.
  Task       19 on host d021 reporting.
  Task       20 on host d021 reporting.
  Task       21 on host d021 reporting.
  Task       22 on host d021 reporting.
  Task       23 on host d021 reporting.
  Task       24 on host d021 reporting.
  Task       25 on host d021 reporting.
  Task       26 on host d021 reporting.
  Task       27 on host d021 reporting.
  Task       28 on host d021 reporting.
  Task       29 on host d021 reporting.
  Task       30 on host d021 reporting.
  Task       31 on host d021 reporting.
  Task       32 on host d021 reporting.
  Task       33 on host d021 reporting.
  Task       34 on host d021 reporting.
  Task       35 on host d021 reporting.
  Task       36 on host d021 reporting.
  Task       37 on host d021 reporting.
  Task       38 on host d021 reporting.
  Task       39 on host d021 reporting.
  Task       40 on host d021 reporting.
  Task       41 on host d021 reporting.
  Task       42 on host d021 reporting.
  Task       43 on host d021 reporting.
  Task       44 on host d021 reporting.
  Task       45 on host d021 reporting.
  Task       46 on host d021 reporting.
  Task       47 on host d021 reporting.
  Task       48 on host d021 reporting.
  Task       49 on host d021 reporting.
  Task       50 on host d021 reporting.
  Task       51 on host d021 reporting.
  Task       52 on host d021 reporting.
  Task       53 on host d021 reporting.
  Task       54 on host d021 reporting.
  Task       55 on host d021 reporting.

  Performing system and environment tests:
  *** Environment variable OMP_NUM_THREADS is not set
  *** For performance reasons you might want to set it to 1
  | Stacksize not measured: no C compiler
  | Checking for scalapack...
  | Testing pdtran()...
  | All pdtran() tests passed.

  Obtaining array dimensions for all initial allocations:
  
  -----------------------------------------------------------------------
  Parsing control.in (first pass over file, find array dimensions only).
  The contents of control.in will be repeated verbatim below
  unless switched off by setting 'verbatim_writeout .false.' .
  in the first line of control.in .
  -----------------------------------------------------------------------
  
  #===============================================================================
  # FHI-aims file: ./Runs/es/control.in
  # Created using the Atomic Simulation Environment (ASE)
  # Mon Jan 13 16:04:38 2020
  #===============================================================================
  xc                                 pbe
  relativistic                       zora scalar 1e-12
  occupation_type                    gaussian 0.0001
  load_balancing                     .true.
  KS_method                          scalapack_fast
  mixer                              pulay
  n_max_pulay                        5
  charge_mix_param                   0.4
  sc_accuracy_etot                   1e-6
  sc_accuracy_eev                    1e-4
  sc_accuracy_rho                    1e-6
  sc_iter_limit                      100
  prodbas_threshold                  1e-4
  basis_threshold                    1e-5
  override_illconditioning           .true.
  use_logsbt                         .true.
  spin                               none
  charge                             0
  #===============================================================================
  
  ################################################################################
  #
  #  FHI-aims code project
  # Volker Blum, Fritz Haber Institute Berlin, 2009
  #
  #  Suggested "tight" defaults for H atom (to be pasted into control.in file)
  #
  ################################################################################
    species        H
  #     global species definitions
      nucleus             1
      mass                1.00794
  #
      l_hartree           6
  #
      cut_pot             4.0  2.0  1.0
      basis_dep_cutoff    1e-4
  #
      radial_base         24 7.0
      radial_multiplier   2
      angular_grids       specified
        division   0.1930   50
        division   0.3175  110
        division   0.4293  194
        division   0.5066  302
        division   0.5626  434
  #      division   0.5922  590
  #      division   0.6227  974
  #      division   0.6868 1202
  #      outer_grid  770
        outer_grid  434
  ################################################################################
  #
  #  Definition of "minimal" basis
  #
  ################################################################################
  #     valence basis states
      valence      1  s   1.
  #     ion occupancy
      ion_occ      1  s   0.5
  ################################################################################
  #
  #  Suggested additional basis functions. For production calculations,
  #  uncomment them one after another (the most important basis functions are
  #  listed first).
  #
  #  Basis constructed for dimers: 0.5 A, 0.7 A, 1.0 A, 1.5 A, 2.5 A
  #
  ################################################################################
  #  "First tier" - improvements: -1014.90 meV to -62.69 meV
       hydro 2 s 2.1
       hydro 2 p 3.5
  #  "Second tier" - improvements: -12.89 meV to -1.83 meV
       hydro 1 s 0.85
       hydro 2 p 3.7
       hydro 2 s 1.2
       hydro 3 d 7
  #  "Third tier" - improvements: -0.25 meV to -0.12 meV
  #     hydro 4 f 11.2
  #     hydro 3 p 4.8
  #     hydro 4 d 9
  #     hydro 3 s 3.2
  ################################################################################
  #
  # For methods that use the localized form of the "resolution of identity" for
  # the two-electron Coulomb operator (RI_method LVL), particularly Hartree-Fock and
  # hybrid density functional calculations, the highest accuracy can be obtained by
  # uncommenting the line beginning with "for_aux"  below, thus adding an extra g radial
  # function to the construction of the product basis set for the expansion.
  # See Ref. New J. Phys. 17, 093020 (2015) for more information, particularly Figs. 1 and 6.
  #
  ################################################################################
  #
  # for_aux hydro 5 g 6.0
  ################################################################################
  #
  #  FHI-aims code project
  # Volker Blum, Fritz Haber Institute Berlin, 2009
  #
  #  Suggested "tight" defaults for C atom (to be pasted into control.in file)
  #
  ################################################################################
    species        C
  #     global species definitions
      nucleus             6
      mass                12.0107
  #
      l_hartree           6
  #
      cut_pot             4.0  2.0  1.0
      basis_dep_cutoff    1e-4
  #
      radial_base         34 7.0
      radial_multiplier   2
      angular_grids specified
        division   0.2187   50
        division   0.4416  110
        division   0.6335  194
        division   0.7727  302
        division   0.8772  434
  #      division   0.9334  590
  #      division   0.9924  770
  #      division   1.0230  974
  #      division   1.5020 1202
  #     outer_grid  974
        outer_grid  434
  ################################################################################
  #
  #  Definition of "minimal" basis
  #
  ################################################################################
  #     valence basis states
      valence      2  s   2.
      valence      2  p   2.
  #     ion occupancy
      ion_occ      2  s   1.
      ion_occ      2  p   1.
  ################################################################################
  #
  #  Suggested additional basis functions. For production calculations,
  #  uncomment them one after another (the most important basis functions are
  #  listed first).
  #
  #  Constructed for dimers: 1.0 A, 1.25 A, 1.5 A, 2.0 A, 3.0 A
  #
  ################################################################################
  #  "First tier" - improvements: -1214.57 meV to -155.61 meV
       hydro 2 p 1.7
       hydro 3 d 6
       hydro 2 s 4.9
  #  "Second tier" - improvements: -67.75 meV to -5.23 meV
       hydro 4 f 9.8
       hydro 3 p 5.2
       hydro 3 s 4.3
       hydro 5 g 14.4
       hydro 3 d 6.2
  #  "Third tier" - improvements: -2.43 meV to -0.60 meV
  #     hydro 2 p 5.6
  #     hydro 2 s 1.4
  #     hydro 3 d 4.9
  #     hydro 4 f 11.2
  #  "Fourth tier" - improvements: -0.39 meV to -0.18 meV
  #     hydro 2 p 2.1
  #     hydro 5 g 16.4
  #     hydro 4 d 13.2
  #     hydro 3 s 13.6
  #     hydro 4 f 17.6
  #  Further basis functions - improvements: -0.08 meV and below
  #     hydro 3 s 2
  #     hydro 3 p 6
  #     hydro 4 d 20
  ################################################################################
  #
  # For methods that use the localized form of the "resolution of identity" for
  # the two-electron Coulomb operator (RI_method LVL), particularly Hartree-Fock and
  # hybrid density functional calculations, the highest accuracy can be obtained by
  # uncommenting the line beginning with "for_aux"  below, thus adding an extra g radial
  # function to the construction of the product basis set for the expansion.
  # See Ref. New J. Phys. 17, 093020 (2015) for more information, particularly Figs. 1 and 6.
  #
  ################################################################################
  #
  # for_aux hydro 5 g 6.0
  
  -----------------------------------------------------------------------
  Completed first pass over input file control.in .
  -----------------------------------------------------------------------
  
  
  -----------------------------------------------------------------------
  Parsing geometry.in (first pass over file, find array dimensions only).
  The contents of geometry.in will be repeated verbatim below
  unless switched off by setting 'verbatim_writeout .false.' .
  in the first line of geometry.in .
  -----------------------------------------------------------------------
  
  #=======================================================
  # FHI-aims file: geometry.in
  # Created using the Atomic Simulation Environment (ASE)
  # Sun Jun 20 15:47:01 2021
  #=======================================================
  atom 15.1473750000000003 29.7590499999999984 44.9643879999999996 H
  atom 14.2401199999999992 29.2904429999999998 44.5833310000000012 C
  atom 13.4922799999999992 28.4905889999999999 45.4012189999999975 C
  atom 13.8848959999999995 29.5137579999999993 43.2432670000000030 C
  atom 12.3206640000000007 27.8685620000000007 44.9183469999999971 C
  atom 13.8009509999999995 28.3290350000000011 46.4356510000000000 H
  atom 12.7444400000000009 28.9420630000000010 42.7229630000000000 C
  atom 14.5281629999999993 30.1435549999999992 42.6295700000000011 H
  atom 11.4419520000000006 27.0128629999999994 45.6108380000000011 C
  atom 11.9966000000000008 28.1243179999999988 43.5801540000000003 C
  atom 12.0464559999999992 28.9344709999999985 41.4465330000000023 C
  atom 10.3326560000000001 26.5182940000000009 45.0044400000000024 C
  atom 11.6413759999999993 26.7663839999999986 46.6557510000000022 H
  atom 10.8436800000000009 27.6114360000000012 42.9531690000000026 C
  atom 10.8873040000000003 28.1583460000000017 41.5831599999999995 C
  atom 12.3393599999999992 29.5775320000000015 40.2430960000000013 C
  atom 9.6565460000000005 25.8686420000000012 45.5580590000000001 H
  atom 10.0148240000000008 26.7971849999999989 43.6531469999999970 C
  atom 10.0148240000000008 28.0023370000000007 40.5238349999999983 C
  atom 11.4606480000000008 29.4054499999999983 39.1875140000000002 C
  atom 13.2321559999999998 30.1929149999999993 40.1373499999999979 H
  atom 9.1023350000000001 26.3873660000000001 43.2239890000000031 H
  atom 9.1052009999999992 27.4110830000000014 40.6106770000000026 H
  atom 10.3388880000000007 28.6430709999999991 39.3166549999999972 C
  atom 11.6664910000000006 29.8951729999999998 38.2341219999999993 H
  atom 9.6636509999999998 28.5224459999999986 38.4688209999999984 H
  
  -----------------------------------------------------------------------
  Completed first pass over input file geometry.in .
  -----------------------------------------------------------------------
  

  Basic array size parameters:
  | Number of species                 :        2
  | Number of atoms                   :       26
  | Max. basis fn. angular momentum   :        4
  | Max. atomic/ionic basis occupied n:        2
  | Max. number of basis fn. types    :        2
  | Max. radial fns per species/type  :        8
  | Max. logarithmic grid size        :     1277
  | Max. radial integration grid size :       69
  | Max. angular integration grid size:      434
  | Max. angular grid division number :        8
  | Radial grid for Hartree potential :     1277
  | Number of spin channels           :        1

------------------------------------------------------------
          Reading file control.in.
------------------------------------------------------------
  XC: Using PBE gradient-corrected functionals.
  Scalar relativistic treatment of kinetic energy: ZORA.
  Threshold value for ZORA:   0.100000E-11
  Occupation type: Gaussian broadening, width =   0.100000E-03 eV.
  Since 'load_balancing .true.' is present in control.in, automatically turning on 'use_local_index .true.'.
  Using load balancing for integrations.
  Kohn-Sham electronic structure solved by the ELSI library.
  Using pulay charge density mixing.
  Pulay mixing - number of memorized iterations:    5
  Charge density mixing - mixing parameter:     0.4000
  Convergence accuracy of total energy:  0.1000E-05
  Convergence accuracy of sum of eigenvalues:  0.1000E-03
  Convergence accuracy of self-consistent charge density:  0.1000E-05
  Maximum number of s.-c. iterations  :   100
  * Ignoring prodbas_threshold
  Threshold for basis singularities:  0.1000E-04
  override_illconditioning: Explicitly overriding any built-in checks for an ill-conditioned overlap matrix.
  *** WARNING: If you use this flag, you should really know what you are doing.
  *** DO NOT keep this flag set by default in all your control.in files.
  Using 1D integrations for auxiliary 2-center integrals.
  Spin treatment: No spin polarisation.
  Charge =   0.000000E+00: Neutral system requested explicitly.
 
  Reading configuration options for species H                   .
  | Found nuclear charge :   1.0000
  | Found atomic mass :    1.00794000000000      amu
  | Found l_max for Hartree potential  :   6
  | Found cutoff potl. onset [A], width [A], scale factor :    4.00000    2.00000    1.00000
  | Threshold for basis-dependent cutoff potential is   0.100000E-03
  | Found data for basic radial integration grid :    24 points, outermost radius =    7.000 A
  | Found multiplier for basic radial grid :   2
  | Found angular grid specification: user-specified.
  | Specified grid contains     6 separate shells.
  | Check grid settings after all constraints further below.
  | Found free-atom valence shell :  1 s   1.000
  | No ionic wave fns used. Skipping ion_occ.
  | Found hydrogenic basis function :  2 s   2.100
  | Found hydrogenic basis function :  2 p   3.500
  | Found hydrogenic basis function :  1 s   0.850
  | Found hydrogenic basis function :  2 p   3.700
  | Found hydrogenic basis function :  2 s   1.200
  | Found hydrogenic basis function :  3 d   7.000
  Species H                   : Missing cutoff potential type.
  Defaulting to exp(1/x)/(1-x)^2 type cutoff potential.
  Species H : No 'logarithmic' tag. Using default grid for free atom:
  | Default logarithmic grid data [bohr] : 0.1000E-03 0.1000E+03 0.1012E+01
  Species H : On-site basis accuracy parameter (for Gram-Schmidt orthonormalisation) not specified.
  Using default value basis_acc =  0.1000000E-03.
  Species H                   : Using default innermost maximum threshold i_radial=  2 for radial functions.
  Species H                   : Default cutoff onset for free atom density etc. : 0.40000000E+01 AA.
  Species H                   : Basic radial grid will be enhanced according to radial_multiplier =   2, to contain    49 grid points.
 
  Reading configuration options for species C                   .
  | Found nuclear charge :   6.0000
  | Found atomic mass :    12.0107000000000      amu
  | Found l_max for Hartree potential  :   6
  | Found cutoff potl. onset [A], width [A], scale factor :    4.00000    2.00000    1.00000
  | Threshold for basis-dependent cutoff potential is   0.100000E-03
  | Found data for basic radial integration grid :    34 points, outermost radius =    7.000 A
  | Found multiplier for basic radial grid :   2
  | Found angular grid specification: user-specified.
  | Specified grid contains     6 separate shells.
  | Check grid settings after all constraints further below.
  | Found free-atom valence shell :  2 s   2.000
  | Found free-atom valence shell :  2 p   2.000
  | No ionic wave fns used. Skipping ion_occ.
  | No ionic wave fns used. Skipping ion_occ.
  | Found hydrogenic basis function :  2 p   1.700
  | Found hydrogenic basis function :  3 d   6.000
  | Found hydrogenic basis function :  2 s   4.900
  | Found hydrogenic basis function :  4 f   9.800
  | Found hydrogenic basis function :  3 p   5.200
  | Found hydrogenic basis function :  3 s   4.300
  | Found hydrogenic basis function :  5 g  14.400
  | Found hydrogenic basis function :  3 d   6.200
  Species C                   : Missing cutoff potential type.
  Defaulting to exp(1/x)/(1-x)^2 type cutoff potential.
  Species C : No 'logarithmic' tag. Using default grid for free atom:
  | Default logarithmic grid data [bohr] : 0.1000E-03 0.1000E+03 0.1012E+01
  Species C : On-site basis accuracy parameter (for Gram-Schmidt orthonormalisation) not specified.
  Using default value basis_acc =  0.1000000E-03.
  Species C                   : Using default innermost maximum threshold i_radial=  2 for radial functions.
  Species C                   : Default cutoff onset for free atom density etc. : 0.40000000E+01 AA.
  Species C                   : Basic radial grid will be enhanced according to radial_multiplier =   2, to contain    69 grid points.
 
  Finished reading input file 'control.in'. Consistency checks are next.
 
  MPI_IN_PLACE appears to work with this MPI implementation.
  | Keeping use_mpi_in_place .true. (see manual).
  Target number of points in a grid batch is not set. Defaulting to  100
  Method for grid partitioning is not set. Defaulting to parallel hash+maxmin partitioning.
  Batch size limit is not set. Defaulting to    200
  By default, will store active basis functions for each batch.
  If in need of memory, prune_basis_once .false. can be used to disable this option.
  communication_type for Hartree potential was not specified.
  Defaulting to calc_hartree .
  Pulay mixer: Number of initial linear mixing iterations not set.
  Defaulting to    0 iterations.
  Work space size for distributed Hartree potential not set.
  Defaulting to   0.200000E+03 MB.
  Algorithm-dependent basis array size parameters:
  | n_max_pulay                         :        5
  Presetting      1001 iterations before the initial mixing cycle
  is restarted anyway using the sc_init_iter criterion / keyword.
  Presetting a factor      1.000 between actual scf density residual
  and density convergence criterion sc_accuracy_rho below which sc_init_iter
  takes no effect.
  Calculation of forces was not defined in control.in. No forces will be calculated.
  Geometry relaxation not requested: no relaxation will be performed.
  No accuracy limit for integral partition fn. given. Defaulting to  0.1000E-14.
  No threshold value for u(r) in integrations given. Defaulting to  0.1000E-05.
  No accuracy for occupation numbers given. Defaulting to  0.1000E-12.
  No threshold value for occupation numbers given. Defaulting to  0.0000E+00.
  No accuracy for fermi level given. Defaulting to  0.1000E-19.
  Maximum # of iterations to find E_F not set. Defaulting to  200.
  Will not use alltoall communication since running on < 1024 CPUs.
  partition_type (choice of integration weights) for integrals was not specified.
  | Using a version of the partition function of Stratmann and coworkers ('stratmann_sparse').
  | At each grid point, the set of atoms used to build the partition table is smoothly restricted to
  | only those atoms whose free-atom density would be non-zero at that grid point.
  Partitioning for Hartree potential was not defined. Using partition_type for integrals.
  | Adjusted default value of keyword multip_moments_threshold to:       0.10000000E-11
  | This value may affect high angular momentum components of the Hartree potential in periodic systems.
  No q(lm)/r^(l+1) cutoff set for long-range Hartree potential.
  | Using default value of  0.100000E-09 .
  | Verify using the multipole_threshold keyword.
  Defaulting to new monopole extrapolation.
  Density update method: automatic selection selected.
 * Warning: use_local_index and/or load_balancing needs packed_matrix_format = index
 * Changing the default setting to packed_matrix_format = index
------------------------------------------------------------


------------------------------------------------------------
          Reading geometry description geometry.in.
------------------------------------------------------------
  Input structure read successfully.
  The structure contains       26 atoms,  and a total of        106.000 electrons.

  Input geometry:
  | No unit cell requested.
  | Atomic structure:
  |       Atom                x [A]            y [A]            z [A]
  |    1: Species H            15.14737500       29.75905000       44.96438800
  |    2: Species C            14.24012000       29.29044300       44.58333100
  |    3: Species C            13.49228000       28.49058900       45.40121900
  |    4: Species C            13.88489600       29.51375800       43.24326700
  |    5: Species C            12.32066400       27.86856200       44.91834700
  |    6: Species H            13.80095100       28.32903500       46.43565100
  |    7: Species C            12.74444000       28.94206300       42.72296300
  |    8: Species H            14.52816300       30.14355500       42.62957000
  |    9: Species C            11.44195200       27.01286300       45.61083800
  |   10: Species C            11.99660000       28.12431800       43.58015400
  |   11: Species C            12.04645600       28.93447100       41.44653300
  |   12: Species C            10.33265600       26.51829400       45.00444000
  |   13: Species H            11.64137600       26.76638400       46.65575100
  |   14: Species C            10.84368000       27.61143600       42.95316900
  |   15: Species C            10.88730400       28.15834600       41.58316000
  |   16: Species C            12.33936000       29.57753200       40.24309600
  |   17: Species H             9.65654600       25.86864200       45.55805900
  |   18: Species C            10.01482400       26.79718500       43.65314700
  |   19: Species C            10.01482400       28.00233700       40.52383500
  |   20: Species C            11.46064800       29.40545000       39.18751400
  |   21: Species H            13.23215600       30.19291500       40.13735000
  |   22: Species H             9.10233500       26.38736600       43.22398900
  |   23: Species H             9.10520100       27.41108300       40.61067700
  |   24: Species C            10.33888800       28.64307100       39.31665500
  |   25: Species H            11.66649100       29.89517300       38.23412200
  |   26: Species H             9.66365100       28.52244600       38.46882100
  |

  | The smallest distance between any two atoms is         1.08836429 AA.
  |
  | The first atom of this pair is atom number                     19 .
  | The second atom of this pair is atom number                    23 .

  Number of empty states per atom not set in control.in - providing a guess from actual geometry.
  | Total number of empty states used during s.c.f. cycle:       63
  If you use a very high smearing, use empty_states (per atom!) in control.in to increase this value.

  Structure-dependent array size parameters: 
  | Maximum number of distinct radial functions  :       18
  | Maximum number of basis functions            :      774
  | Number of Kohn-Sham states (occupied + empty):      116
------------------------------------------------------------

------------------------------------------------------------
          Preparing all fixed parts of the calculation.
------------------------------------------------------------
  Determining machine precision:
    2.225073858507201E-308
  Setting up grids for atomic and cluster calculations.

  Creating wave function, potential, and density for free atoms.

  Species: H

  List of occupied orbitals and eigenvalues:
    n    l              occ      energy [Ha]    energy [eV]
    1    0           1.0000        -0.238386        -6.4868


  Species: C

  List of occupied orbitals and eigenvalues:
    n    l              occ      energy [Ha]    energy [eV]
    1    0           2.0000       -10.049212      -273.4530
    2    0           2.0000        -0.504761       -13.7352
    2    1           2.0000        -0.193631        -5.2690

  Creating fixed part of basis set: Ionic, confined, hydrogenic.
 
  H                    hydrogenic:
 
  List of hydrogenic basis orbitals: 
    n    l      effective z      eigenvalue [eV]  inner max. [A]     outer max. [A]     outer radius [A]   
    2    0         2.100000       -14.9965           0.193243           1.317208           5.373006
    2    1         3.500000       -41.6672           0.602369           0.602369           4.056063
    1    0         0.850000        -9.8292           0.624871           0.624871           5.373006
    2    1         3.700000       -46.5653           0.573622           0.573622           3.910002
    2    0         1.200000        -4.5995           0.334980           2.228188           5.505995
    3    2         7.000000       -74.0753           0.680699           0.680699           3.769201
 
 
  C                    hydrogenic:
 
  List of hydrogenic basis orbitals: 
    n    l      effective z      eigenvalue [eV]  inner max. [A]     outer max. [A]     outer radius [A]   
    2    1         1.700000        -9.8152           1.245706           1.245706           5.401630
    3    2         6.000000       -54.4226           0.792453           0.792453           4.178599
    2    0         4.900000       -81.6681           0.082559           0.562749           3.353238
    4    3         9.800000       -81.6681           0.863254           0.863254           4.028125
    3    1         5.200000       -40.8774           0.305389           1.215618           4.898362
    3    0         4.300000       -27.9508           0.091041           1.610311           5.401630
    5    4        14.400000      -112.8510           0.917666           0.917666           3.883070
    3    2         6.200000       -58.1113           0.763917           0.763917           4.077671
 

  Adding cutoff potential to free-atom effective potential.
  Creating atomic-like basis functions for current effective potential.

  Species H                   :

  List of atomic basis orbitals and eigenvalues:
    n    l      energy [Ha]    energy [eV]    outer radius [A]
    1    0        -0.238386        -6.4868       5.373006


  Species C                   :

  List of atomic basis orbitals and eigenvalues:
    n    l      energy [Ha]    energy [eV]    outer radius [A]
    1    0       -10.049212      -273.4530       1.934409
    2    0        -0.504761       -13.7352       5.271162
    2    1        -0.193631        -5.2690       5.401630

  Assembling full basis from fixed parts.
  | Species H :   atomic orbital   1 s accepted.
  | Species H :    hydro orbital   2 s accepted.
  | Species H :    hydro orbital   1 s accepted.
  | Species H :    hydro orbital   2 s accepted.
  | Species H :    hydro orbital   2 p accepted.
  | Species H :    hydro orbital   2 p accepted.
  | Species H :    hydro orbital   3 d accepted.
  | Species C :   atomic orbital   1 s accepted.
  | Species C :    hydro orbital   2 s accepted.
  | Species C :   atomic orbital   2 s accepted.
  | Species C :    hydro orbital   3 s accepted.
  | Species C :    hydro orbital   3 p accepted.
  | Species C :   atomic orbital   2 p accepted.
  | Species C :    hydro orbital   2 p accepted.
  | Species C :    hydro orbital   3 d accepted.
  | Species C :    hydro orbital   3 d accepted.
  | Species C :    hydro orbital   4 f accepted.
  | Species C :    hydro orbital   5 g accepted.
 
  Basis size parameters after reduction:
  | Total number of radial functions:       18
  | Total number of basis functions :      774
 
  Per-task memory consumption for arrays in subroutine allocate_ext:
  |           4.432016MB.
  Testing on-site integration grid accuracy.
  |  Species  Function  <phi|h_atom|phi> (log., in eV)  <phi|h_atom|phi> (rad., in eV)
           1        1                 -6.4870767962                 -6.4871688290
           1        2                 13.5032046589                 13.5028982997
           1        3                 32.8195184817                 32.8119941656
           1        4                 33.8513856511                 33.7670005767 ***
           1        5                 28.8544614965                 28.8544615203
           1        6                 59.6326952547                 59.6327656460
           1        7                 60.2719308513                 60.2719305949
           2        8               -273.4529726040               -273.4529710464
           2        9                -10.7721037319                -10.7721022101
           2       10                 17.6044132601                 17.6044162063
           2       11                 53.7706460658                 53.7706913770
           2       12                 15.0973290362                 15.0973256030
           2       13                  3.8545134692                  3.8545724687
           2       14                 12.1156992592                 12.1182024431
           2       15                 29.4352039302                 29.4352041816
           2       16                 54.8741144708                 54.8740268729
           2       17                 59.3556032049                 59.3556031382
           2       18                 93.4551837154                 93.4551838009
 * Note: Onsite integrals marked "***" above are less accurate than
 * onsite_accuracy_threshold =    0.03000 eV. Usually, this is harmless.
 * When in doubt, tighten the "radial" and/or "radial_multiplier" flags to check.

  Preparing densities etc. for the partition functions (integrals / Hartree potential).

  Preparations completed.
  max(cpu_time)          :      0.195 s.
  Wall clock time (cpu1) :      0.211 s.
------------------------------------------------------------

------------------------------------------------------------
          Begin self-consistency loop: Initialization.

          Date     :  20210620, Time     :  165850.546
------------------------------------------------------------

  Initializing index lists of integration centers etc. from given atomic structure:
  | Number of centers in hartree potential         :        26
  | Number of centers in hartree multipole         :        26
  | Number of centers in electron density summation:        26
  | Number of centers in basis integrals           :        26
  | Number of centers in integrals                 :        26
  | Number of centers in hamiltonian               :        26
  * Using 56 tasks for Scalapack Eigenvalue solver.
  Detailed listing of tasks and assigned k-points:
  (for non-periodic systems, the "k-point" denotes an internal label only)
   Task     0 k-point     1 on d021
   Task     1 k-point     1 on d021
   Task     2 k-point     1 on d021
   Task     3 k-point     1 on d021
   Task     4 k-point     1 on d021
   Task     5 k-point     1 on d021
   Task     6 k-point     1 on d021
   Task     7 k-point     1 on d021
   Task     8 k-point     1 on d021
   Task     9 k-point     1 on d021
   Task    10 k-point     1 on d021
   Task    11 k-point     1 on d021
   Task    12 k-point     1 on d021
   Task    13 k-point     1 on d021
   Task    14 k-point     1 on d021
   Task    15 k-point     1 on d021
   Task    16 k-point     1 on d021
   Task    17 k-point     1 on d021
   Task    18 k-point     1 on d021
   Task    19 k-point     1 on d021
   Task    20 k-point     1 on d021
   Task    21 k-point     1 on d021
   Task    22 k-point     1 on d021
   Task    23 k-point     1 on d021
   Task    24 k-point     1 on d021
   Task    25 k-point     1 on d021
   Task    26 k-point     1 on d021
   Task    27 k-point     1 on d021
   Task    28 k-point     1 on d021
   Task    29 k-point     1 on d021
   Task    30 k-point     1 on d021
   Task    31 k-point     1 on d021
   Task    32 k-point     1 on d021
   Task    33 k-point     1 on d021
   Task    34 k-point     1 on d021
   Task    35 k-point     1 on d021
   Task    36 k-point     1 on d021
   Task    37 k-point     1 on d021
   Task    38 k-point     1 on d021
   Task    39 k-point     1 on d021
   Task    40 k-point     1 on d021
   Task    41 k-point     1 on d021
   Task    42 k-point     1 on d021
   Task    43 k-point     1 on d021
   Task    44 k-point     1 on d021
   Task    45 k-point     1 on d021
   Task    46 k-point     1 on d021
   Task    47 k-point     1 on d021
   Task    48 k-point     1 on d021
   Task    49 k-point     1 on d021
   Task    50 k-point     1 on d021
   Task    51 k-point     1 on d021
   Task    52 k-point     1 on d021
   Task    53 k-point     1 on d021
   Task    54 k-point     1 on d021
   Task    55 k-point     1 on d021
  Tasks:    56 split into      8 X      7 BLACS grid
  Calculating block size based on n_basis =          774 max_nprow =            8 max_npcol =            7
  ScaLAPACK block size set to:           16
  Allocating        0.091 MB for ovlp
  Allocating        0.091 MB for ham
  Allocating        0.091 MB for eigenvec
  Required Scalapack workspace - INTEGER:            1 REAL:             1
  Partitioning the integration grid into batches with parallel hashing+maxmin method.
  | Number of batches:     4087
  | Maximal batch size:     200
  | Minimal batch size:       4
  | Average batch size:     106.129
  | Standard deviation of batch sizes:      37.539

  Integration load balanced across     56 MPI tasks.
  Work distribution over tasks is as follows:
  Task      0 has       7898 integration points.
  Task      1 has       7884 integration points.
  Task      2 has       7594 integration points.
  Task      3 has       7893 integration points.
  Task      4 has       7684 integration points.
  Task      5 has       7816 integration points.
  Task      6 has       7667 integration points.
  Task      7 has       7738 integration points.
  Task      8 has       7881 integration points.
  Task      9 has       7566 integration points.
  Task     10 has       7772 integration points.
  Task     11 has       7721 integration points.
  Task     12 has       7751 integration points.
  Task     13 has       7637 integration points.
  Task     14 has       7795 integration points.
  Task     15 has       7878 integration points.
  Task     16 has       7694 integration points.
  Task     17 has       7787 integration points.
  Task     18 has       7721 integration points.
  Task     19 has       7753 integration points.
  Task     20 has       7643 integration points.
  Task     21 has       7839 integration points.
  Task     22 has       7824 integration points.
  Task     23 has       7629 integration points.
  Task     24 has       7787 integration points.
  Task     25 has       7661 integration points.
  Task     26 has       7736 integration points.
  Task     27 has       7676 integration points.
  Task     28 has       7872 integration points.
  Task     29 has       7762 integration points.
  Task     30 has       7710 integration points.
  Task     31 has       7860 integration points.
  Task     32 has       7635 integration points.
  Task     33 has       7724 integration points.
  Task     34 has       7707 integration points.
  Task     35 has       7751 integration points.
  Task     36 has       7781 integration points.
  Task     37 has       7719 integration points.
  Task     38 has       7833 integration points.
  Task     39 has       7713 integration points.
  Task     40 has       7826 integration points.
  Task     41 has       7569 integration points.
  Task     42 has       7831 integration points.
  Task     43 has       7771 integration points.
  Task     44 has       7678 integration points.
  Task     45 has       7880 integration points.
  Task     46 has       7745 integration points.
  Task     47 has       7685 integration points.
  Task     48 has       7646 integration points.
  Task     49 has       7791 integration points.
  Task     50 has       7779 integration points.
  Task     51 has       7654 integration points.
  Task     52 has       7751 integration points.
  Task     53 has       7721 integration points.
  Task     54 has       7760 integration points.
  Task     55 has       7669 integration points.
  Initializing partition tables, free-atom densities, potentials, etc. across the integration grid (initialize_grid_storage).
  | initialize_grid_storage: Actual outermost partition radius vs. multipole_radius_free
  | (-- VB: in principle, multipole_radius_free should be larger, hence this output)
  | Species        1: Confinement radius =              6.000000000000000 AA, multipole_radius_free =              6.071692442739658 AA.
  | Species        1: outer_partition_radius set to              6.071692442739658 AA .
  | Species        2: Confinement radius =              6.000000000000000 AA, multipole_radius_free =              6.029870734432609 AA.
  | Species        2: outer_partition_radius set to              6.029870734432609 AA .
  | The sparse table of interatomic distances needs      7.9080 kbyte instead of     5.4080 kbyte of memory.
  | Using the partition_type stratmann_smoother will reduce your memory usage.
  | Net number of integration points:   433748
  | of which are non-zero points    :   352875
  Renormalizing the initial density to the exact electron count on the 3D integration grid.
  | Initial density: Formal number of electrons (from input files) :     106.0000000000
  | Integrated number of electrons on 3D grid     :     106.0001754400
  | Charge integration error                      :       0.0001754400
  | Normalization factor for density and gradient :       0.9999983449
  Obtaining max. number of non-zero basis functions in each batch (get_n_compute_maxes).
  | Maximal number of non-zero basis functions:      741
  Selecting the method for density update.
  Loop over occupied states selected for charge density update.
  Hamiltonian matrix size:
  | Size of matrix non-packed:                299925
  | Size of matrix packed:          298501
  Allocating        0.718 MB for KS_eigenvector
  use_local_index: Max. local matrix size =       296427
  Task:     0 matrix size:      88410
  Task:     1 matrix size:     144991
  Task:     2 matrix size:     160461
  Task:     3 matrix size:     189228
  Task:     4 matrix size:     270650
  Task:     5 matrix size:     247760
  Task:     6 matrix size:     280856
  Task:     7 matrix size:      86320
  Task:     8 matrix size:      73153
  Task:     9 matrix size:      88831
  Task:    10 matrix size:     204255
  Task:    11 matrix size:     251326
  Task:    12 matrix size:     278778
  Task:    13 matrix size:     265824
  Task:    14 matrix size:     189415
  Task:    15 matrix size:     122265
  Task:    16 matrix size:     210893
  Task:    17 matrix size:     296427
  Task:    18 matrix size:     285989
  Task:    19 matrix size:     290524
  Task:    20 matrix size:     245829
  Task:    21 matrix size:      67896
  Task:    22 matrix size:     129795
  Task:    23 matrix size:     126756
  Task:    24 matrix size:     277204
  Task:    25 matrix size:     251160
  Task:    26 matrix size:     212495
  Task:    27 matrix size:     155257
  Task:    28 matrix size:     195000
  Task:    29 matrix size:     169632
  Task:    30 matrix size:     239749
  Task:    31 matrix size:     107880
  Task:    32 matrix size:      81003
  Task:    33 matrix size:     159895
  Task:    34 matrix size:     111156
  Task:    35 matrix size:     264511
  Task:    36 matrix size:     281313
  Task:    37 matrix size:     284203
  Task:    38 matrix size:     205109
  Task:    39 matrix size:     143916
  Task:    40 matrix size:     219421
  Task:    41 matrix size:     155961
  Task:    42 matrix size:     239725
  Task:    43 matrix size:     278433
  Task:    44 matrix size:     237659
  Task:    45 matrix size:     166752
  Task:    46 matrix size:     128271
  Task:    47 matrix size:     169069
  Task:    48 matrix size:     124251
  Task:    49 matrix size:     273280
  Task:    50 matrix size:     246700
  Task:    51 matrix size:     221421
  Task:    52 matrix size:     195622
  Task:    53 matrix size:     146611
  Task:    54 matrix size:     104196
  Task:    55 matrix size:      77815
  Integrating Hamiltonian matrix: batch-based integration.
  Time summed over all CPUs for integration: real work       55.644 s, elapsed      104.587 s
  Time get_set_sparse_local_matrix_scalapack:     0.008574 s
  Start compute_balanced_batch_distribution
  Done load balancing, time needed:      0.003 s
  Integrating overlap matrix with loadbalancing
  Time summed over all CPUs for integration: real work       15.050 s, elapsed       17.853 s
  Time get_set_full_local_matrix_scalapack:     0.007711 s

  Updating Kohn-Sham eigenvalues and eigenvectors using ELSI and the ELPA eigensolver.
  Overlap matrix is not singular
  | Lowest and highest eigenvalues :  0.11E+02,  0.93E-04
  Finished singularity check of overlap matrix
  | Time :     0.041 s
  Finished Cholesky decomposition
  | Time :     0.009 s
  Finished transformation to standard eigenproblem
  | Time :     0.004 s
  Starting ELPA eigensolver
  Finished solving standard eigenproblem
  | Time :     0.033 s
  Finished back-transformation of eigenvectors
  | Time :     0.001 s

  Obtaining occupation numbers and chemical potential using ELSI.
  | Chemical potential (Fermi level):    -8.77549746 eV
  Writing Kohn-Sham eigenvalues.

  State    Occupation    Eigenvalue [Ha]    Eigenvalue [eV]
      1       2.00000         -10.176111         -276.90606
      2       2.00000         -10.175899         -276.90029
      3       2.00000         -10.173332         -276.83045
      4       2.00000         -10.173232         -276.82772
      5       2.00000         -10.172683         -276.81279
      6       2.00000         -10.172581         -276.81002
      7       2.00000         -10.172343         -276.80355
      8       2.00000         -10.171356         -276.77668
      9       2.00000         -10.171016         -276.76742
     10       2.00000         -10.170967         -276.76610
     11       2.00000         -10.170889         -276.76397
     12       2.00000         -10.170691         -276.75860
     13       2.00000         -10.170360         -276.74959
     14       2.00000         -10.169938         -276.73810
     15       2.00000         -10.168571         -276.70091
     16       2.00000         -10.168174         -276.69009
     17       2.00000          -1.039862          -28.29610
     18       2.00000          -0.996037          -27.10356
     19       2.00000          -0.966727          -26.30597
     20       2.00000          -0.949379          -25.83392
     21       2.00000          -0.894166          -24.33149
     22       2.00000          -0.885783          -24.10339
     23       2.00000          -0.868378          -23.62978
     24       2.00000          -0.861836          -23.45175
     25       2.00000          -0.793894          -21.60294
     26       2.00000          -0.781631          -21.26927
     27       2.00000          -0.747562          -20.34220
     28       2.00000          -0.737304          -20.06306
     29       2.00000          -0.717782          -19.53184
     30       2.00000          -0.667920          -18.17503
     31       2.00000          -0.659358          -17.94204
     32       2.00000          -0.650222          -17.69343
     33       2.00000          -0.644521          -17.53830
     34       2.00000          -0.616038          -16.76326
     35       2.00000          -0.606124          -16.49346
     36       2.00000          -0.594870          -16.18724
     37       2.00000          -0.577465          -15.71362
     38       2.00000          -0.574189          -15.62447
     39       2.00000          -0.570369          -15.52054
     40       2.00000          -0.548718          -14.93139
     41       2.00000          -0.543451          -14.78806
     42       2.00000          -0.529810          -14.41687
     43       2.00000          -0.511376          -13.91526
     44       2.00000          -0.506577          -13.78465
     45       2.00000          -0.503396          -13.69809
     46       2.00000          -0.496310          -13.50527
     47       2.00000          -0.490506          -13.34734
     48       2.00000          -0.474112          -12.90124
     49       2.00000          -0.452133          -12.30317
     50       2.00000          -0.413569          -11.25378
     51       2.00000          -0.400081          -10.88677
     52       2.00000          -0.381774          -10.38861
     53       2.00000          -0.371255          -10.10236
     54       0.00000          -0.264428           -7.19545
     55       0.00000          -0.226538           -6.16443
     56       0.00000          -0.210906           -5.73905
     57       0.00000          -0.183214           -4.98552
     58       0.00000          -0.154122           -4.19388
     59       0.00000          -0.121222           -3.29862
     60       0.00000          -0.069782           -1.89888
     61       0.00000          -0.067308           -1.83155
     62       0.00000          -0.053258           -1.44922
     63       0.00000          -0.039125           -1.06464
     64       0.00000          -0.037923           -1.03194
     65       0.00000          -0.036447           -0.99176
     66       0.00000          -0.028547           -0.77681
     67       0.00000          -0.018983           -0.51656
     68       0.00000          -0.014379           -0.39127
     69       0.00000          -0.006051           -0.16466
     70       0.00000          -0.004764           -0.12965
     71       0.00000           0.001148            0.03123
     72       0.00000           0.020381            0.55459
     73       0.00000           0.023671            0.64412
     74       0.00000           0.025564            0.69563
     75       0.00000           0.035186            0.95747
     76       0.00000           0.040406            1.09952
     77       0.00000           0.046820            1.27404
     78       0.00000           0.050109            1.36353
     79       0.00000           0.051901            1.41229
     80       0.00000           0.059514            1.61946
     81       0.00000           0.061912            1.68471
     82       0.00000           0.071026            1.93273
     83       0.00000           0.078142            2.12634
     84       0.00000           0.080060            2.17855
     85       0.00000           0.082650            2.24903
     86       0.00000           0.089706            2.44103
     87       0.00000           0.092722            2.52309
     88       0.00000           0.099585            2.70984
     89       0.00000           0.105346            2.86662
     90       0.00000           0.107968            2.93796
     91       0.00000           0.108856            2.96211
     92       0.00000           0.111683            3.03906
     93       0.00000           0.115327            3.13821
     94       0.00000           0.132402            3.60284
     95       0.00000           0.132823            3.61430
     96       0.00000           0.142024            3.86467
     97       0.00000           0.143627            3.90830
     98       0.00000           0.153523            4.17757
     99       0.00000           0.155205            4.22333
    100       0.00000           0.164689            4.48143
    101       0.00000           0.166411            4.52829
    102       0.00000           0.172335            4.68948
    103       0.00000           0.177597            4.83266
    104       0.00000           0.182564            4.96781
    105       0.00000           0.185021            5.03466
    106       0.00000           0.190497            5.18368
    107       0.00000           0.192795            5.24621
    108       0.00000           0.193399            5.26266
    109       0.00000           0.199775            5.43615
    110       0.00000           0.207526            5.64706
    111       0.00000           0.220810            6.00853
    112       0.00000           0.227034            6.17790
    113       0.00000           0.236404            6.43288
    114       0.00000           0.239293            6.51150
    115       0.00000           0.243375            6.62258
    116       0.00000           0.247550            6.73619

  Highest occupied state (VBM) at    -10.10236110 eV
  | Occupation number:      2.00000000

  Lowest unoccupied state (CBM) at    -7.19545475 eV
  | Occupation number:      0.00000000

  Overall HOMO-LUMO gap:      2.90690635 eV.
  Calculating total energy contributions from superposition of free atom densities.

  Total energy components:
  | Sum of eigenvalues            :        -373.54526064 Ha      -10164.68371545 eV
  | XC energy correction          :         -88.34027295 Ha       -2403.86113412 eV
  | XC potential correction       :         113.46937285 Ha        3087.65873349 eV
  | Free-atom electrostatic energy:        -267.85014860 Ha       -7288.57338204 eV
  | Hartree energy correction     :           0.00000000 Ha           0.00000000 eV
  | Entropy correction            :           0.00000000 Ha           0.00000000 eV
  | ---------------------------
  | Total energy                  :        -616.26630935 Ha      -16769.45949812 eV
  | Total energy, T -> 0          :        -616.26630935 Ha      -16769.45949812 eV  <-- do not rely on this value for anything but (periodic) metals
  | Electronic free energy        :        -616.26630935 Ha      -16769.45949812 eV

  Derived energy quantities:
  | Kinetic energy                :         610.49439897 Ha       16612.39782536 eV
  | Electrostatic energy          :       -1138.42043536 Ha      -30977.99618936 eV
  | Energy correction for multipole
  | error in Hartree potential    :           0.00000000 Ha           0.00000000 eV
  | Sum of eigenvalues per atom                           :        -390.94937367 eV
  | Total energy (T->0) per atom                          :        -644.97921147 eV  <-- do not rely on this value for anything but (periodic) metals
  | Electronic free energy per atom                       :        -644.97921147 eV
  Initialize hartree_potential_storage
  Max. number of atoms included in rho_multipole:           26

  End scf initialization - timings             :  max(cpu_time)    wall_clock(cpu1)
  | Time for scf. initialization               :        2.891 s           2.947 s
  | Boundary condition initialization          :        0.001 s           0.004 s
  | Integration                                :        2.214 s           2.219 s
  | Solution of K.-S. eqns.                    :        0.094 s           0.109 s
  | Grid partitioning                          :        0.281 s           0.285 s
  | Preloading free-atom quantities on grid    :        0.013 s           0.016 s
  | Free-atom superposition energy             :        0.026 s           0.027 s
  | Total energy evaluation                    :        0.001 s           0.005 s

  Partial memory accounting:
  | Current value for overall tracked memory usage on task 0  :           1.347 MB
  | Peak value for overall tracked memory usage on task 0     :          17.135 MB after allocating zora_vector2
  | Largest tracked array allocation on task 0 so far         :           4.393 MB  when allocating hamiltonian_shell
  Note:  These values currently only include a subset of arrays which are explicitly tracked.
  The "true" memory usage will be greater.
------------------------------------------------------------

------------------------------------------------------------
          Begin self-consistency iteration #    1

  Date     :  20210620, Time     :  165853.495
------------------------------------------------------------
  Evaluating new KS density.
  Integration grid: deviation in total charge (<rho> - N_e) =   7.105427E-14
  Pulay mixing of updated and previous charge densities.

  Evaluating partitioned Hartree potential by multipole expansion.
  | Analytical far-field extrapolation by fixed multipoles:
  | Hartree multipole sum: apparent total charge =   0.170383E-03
  Summing up the Hartree potential with load balancing.
  Time summed over all CPUs for potential: real work        8.439 s, elapsed       13.432 s
  | RMS charge density error from multipole expansion :   0.957954E-02

  Start compute_balanced_batch_distribution
  Done load balancing, time needed:      0.003 s
  Integrating Hamiltonian matrix: batch-based integration with load balancing
  Time summed over all CPUs for integration: real work       60.394 s, elapsed       66.595 s
  Time get_set_full_local_matrix_scalapack:     0.006898 s
  Start compute_balanced_batch_distribution
  Done load balancing, time needed:      0.003 s

  Updating Kohn-Sham eigenvalues and eigenvectors using ELSI and the ELPA eigensolver.
  Finished transformation to standard eigenproblem
  | Time :     0.004 s
  Starting ELPA eigensolver
  Finished solving standard eigenproblem
  | Time :     0.032 s
  Finished back-transformation of eigenvectors
  | Time :     0.001 s

  Obtaining occupation numbers and chemical potential using ELSI.
  | Chemical potential (Fermi level):    -4.52408174 eV
  Writing Kohn-Sham eigenvalues.

  State    Occupation    Eigenvalue [Ha]    Eigenvalue [eV]
      1       2.00000          -9.963868         -271.13065
      2       2.00000          -9.961322         -271.06137
      3       2.00000          -9.960756         -271.04595
      4       2.00000          -9.960411         -271.03657
      5       2.00000          -9.960212         -271.03117
      6       2.00000          -9.959612         -271.01482
      7       2.00000          -9.958842         -270.99387
      8       2.00000          -9.955068         -270.89117
      9       2.00000          -9.952103         -270.81049
     10       2.00000          -9.950678         -270.77172
     11       2.00000          -9.949553         -270.74112
     12       2.00000          -9.949255         -270.73299
     13       2.00000          -9.948635         -270.71614
     14       2.00000          -9.937616         -270.41628
     15       2.00000          -9.936420         -270.38373
     16       2.00000          -9.935071         -270.34703
     17       2.00000          -0.877073          -23.86638
     18       2.00000          -0.834002          -22.69436
     19       2.00000          -0.811315          -22.07701
     20       2.00000          -0.788611          -21.45921
     21       2.00000          -0.743055          -20.21956
     22       2.00000          -0.736072          -20.02953
     23       2.00000          -0.709921          -19.31793
     24       2.00000          -0.706842          -19.23414
     25       2.00000          -0.641201          -17.44798
     26       2.00000          -0.636732          -17.32637
     27       2.00000          -0.600967          -16.35313
     28       2.00000          -0.589424          -16.03904
     29       2.00000          -0.573117          -15.59532
     30       2.00000          -0.524700          -14.27781
     31       2.00000          -0.523268          -14.23886
     32       2.00000          -0.515249          -14.02063
     33       2.00000          -0.499630          -13.59562
     34       2.00000          -0.470270          -12.79671
     35       2.00000          -0.462269          -12.57899
     36       2.00000          -0.442166          -12.03195
     37       2.00000          -0.440872          -11.99673
     38       2.00000          -0.434268          -11.81704
     39       2.00000          -0.428874          -11.67025
     40       2.00000          -0.419397          -11.41237
     41       2.00000          -0.416570          -11.33544
     42       2.00000          -0.399791          -10.87888
     43       2.00000          -0.372537          -10.13724
     44       2.00000          -0.370301          -10.07640
     45       2.00000          -0.364932           -9.93031
     46       2.00000          -0.350045           -9.52521
     47       2.00000          -0.348459           -9.48205
     48       2.00000          -0.345447           -9.40009
     49       2.00000          -0.319991           -8.70741
     50       2.00000          -0.284839           -7.75087
     51       2.00000          -0.271573           -7.38989
     52       2.00000          -0.244172           -6.64427
     53       2.00000          -0.241333           -6.56700
     54       0.00000          -0.137816           -3.75017
     55       0.00000          -0.100827           -2.74363
     56       0.00000          -0.079326           -2.15858
     57       0.00000          -0.053199           -1.44762
     58       0.00000          -0.026473           -0.72036
     59       0.00000          -0.026335           -0.71662
     60       0.00000          -0.018485           -0.50301
     61       0.00000          -0.016954           -0.46134
     62       0.00000           0.000870            0.02368
     63       0.00000           0.001116            0.03038
     64       0.00000           0.003027            0.08236
     65       0.00000           0.018947            0.51556
     66       0.00000           0.023637            0.64319
     67       0.00000           0.044403            1.20826
     68       0.00000           0.054593            1.48555
     69       0.00000           0.062908            1.71180
     70       0.00000           0.074923            2.03876
     71       0.00000           0.084814            2.30791
     72       0.00000           0.092909            2.52817
     73       0.00000           0.095777            2.60624
     74       0.00000           0.096917            2.63726
     75       0.00000           0.106806            2.90634
     76       0.00000           0.109371            2.97614
     77       0.00000           0.117121            3.18703
     78       0.00000           0.121503            3.30626
     79       0.00000           0.123495            3.36046
     80       0.00000           0.126762            3.44937
     81       0.00000           0.130195            3.54280
     82       0.00000           0.133492            3.63251
     83       0.00000           0.144852            3.94162
     84       0.00000           0.152892            4.16039
     85       0.00000           0.155296            4.22581
     86       0.00000           0.157149            4.27623
     87       0.00000           0.162309            4.41664
     88       0.00000           0.166942            4.54272
     89       0.00000           0.175619            4.77885
     90       0.00000           0.180283            4.90576
     91       0.00000           0.182974            4.97897
     92       0.00000           0.184340            5.01614
     93       0.00000           0.188777            5.13688
     94       0.00000           0.197804            5.38253
     95       0.00000           0.205551            5.59332
     96       0.00000           0.207971            5.65919
     97       0.00000           0.211513            5.75557
     98       0.00000           0.217297            5.91295
     99       0.00000           0.219800            5.98106
    100       0.00000           0.222105            6.04378
    101       0.00000           0.226592            6.16587
    102       0.00000           0.245036            6.66776
    103       0.00000           0.247145            6.72516
    104       0.00000           0.252396            6.86804
    105       0.00000           0.254911            6.93648
    106       0.00000           0.267831            7.28804
    107       0.00000           0.272815            7.42366
    108       0.00000           0.278715            7.58422
    109       0.00000           0.280012            7.61952
    110       0.00000           0.285607            7.77177
    111       0.00000           0.297246            8.08848
    112       0.00000           0.306275            8.33417
    113       0.00000           0.307426            8.36548
    114       0.00000           0.308065            8.38287
    115       0.00000           0.313014            8.51754
    116       0.00000           0.315593            8.58772

  Highest occupied state (VBM) at     -6.56700422 eV
  | Occupation number:      2.00000000

  Lowest unoccupied state (CBM) at    -3.75017010 eV
  | Occupation number:      0.00000000

  Overall HOMO-LUMO gap:      2.81683412 eV.

  Total energy components:
  | Sum of eigenvalues            :        -355.95741721 Ha       -9686.09414541 eV
  | XC energy correction          :         -89.51858327 Ha       -2435.92458925 eV
  | XC potential correction       :         115.00060824 Ha        3129.32576853 eV
  | Free-atom electrostatic energy:        -267.85014860 Ha       -7288.57338204 eV
  | Hartree energy correction     :         -17.36163041 Ha        -472.43400069 eV
  | Entropy correction            :           0.00000000 Ha           0.00000000 eV
  | ---------------------------
  | Total energy                  :        -615.68717126 Ha      -16753.70034885 eV
  | Total energy, T -> 0          :        -615.68717126 Ha      -16753.70034885 eV  <-- do not rely on this value for anything but (periodic) metals
  | Electronic free energy        :        -615.68717126 Ha      -16753.70034885 eV

  Derived energy quantities:
  | Kinetic energy                :         615.83361573 Ha       16757.68530572 eV
  | Electrostatic energy          :       -1142.00220372 Ha      -31075.46106533 eV
  | Energy correction for multipole
  | error in Hartree potential    :          -0.03685099 Ha          -1.00276646 eV
  | Sum of eigenvalues per atom                           :        -372.54208252 eV
  | Total energy (T->0) per atom                          :        -644.37309034 eV  <-- do not rely on this value for anything but (periodic) metals
  | Electronic free energy per atom                       :        -644.37309034 eV

  Self-consistency convergence accuracy:
  | Change of charge density      :  0.8048E+00
  | Change of sum of eigenvalues  :  0.4786E+03 eV
  | Change of total energy        :  0.1576E+02 eV

  End self-consistency iteration #     1       :  max(cpu_time)    wall_clock(cpu1)
  | Time for this iteration                    :        1.938 s           1.944 s
  | Charge density update                      :        0.428 s           0.429 s
  | Density mixing                             :        0.001 s           0.003 s
  | Hartree multipole update                   :        0.006 s           0.007 s
  | Hartree multipole summation                :        0.245 s           0.248 s
  | Integration                                :        1.192 s           1.192 s
  | Solution of K.-S. eqns.                    :        0.054 s           0.054 s
  | Total energy evaluation                    :        0.000 s           0.001 s

  Partial memory accounting:
  | Current value for overall tracked memory usage on task 0  :           1.347 MB
  | Peak value for overall tracked memory usage on task 0     :          17.520 MB after allocating zora_vector2
  | Largest tracked array allocation on task 0 so far         :           4.393 MB  when allocating hamiltonian_shell
  Note:  These values currently only include a subset of arrays which are explicitly tracked.
  The "true" memory usage will be greater.
------------------------------------------------------------

------------------------------------------------------------
          Begin self-consistency iteration #    2

  Date     :  20210620, Time     :  165855.440
------------------------------------------------------------
  Evaluating new KS density.
  Integration grid: deviation in total charge (<rho> - N_e) =   9.947598E-14
  Pulay mixing of updated and previous charge densities.

  Evaluating partitioned Hartree potential by multipole expansion.
  | Analytical far-field extrapolation by fixed multipoles:
  | Hartree multipole sum: apparent total charge =   0.170398E-03
  Summing up the Hartree potential with load balancing.
  Time summed over all CPUs for potential: real work        8.508 s, elapsed       10.202 s
  | RMS charge density error from multipole expansion :   0.168753E-01

  Integrating Hamiltonian matrix: batch-based integration with load balancing
  Time summed over all CPUs for integration: real work       61.968 s, elapsed       64.058 s
  Time get_set_full_local_matrix_scalapack:     0.008921 s

  Updating Kohn-Sham eigenvalues and eigenvectors using ELSI and the ELPA eigensolver.
  Finished transformation to standard eigenproblem
  | Time :     0.005 s
  Starting ELPA eigensolver
  Finished solving standard eigenproblem
  | Time :     0.032 s
  Finished back-transformation of eigenvectors
  | Time :     0.001 s

  Obtaining occupation numbers and chemical potential using ELSI.
  | Chemical potential (Fermi level):    -3.56572914 eV
  Highest occupied state (VBM) at     -5.55875530 eV
  | Occupation number:      2.00000000

  Lowest unoccupied state (CBM) at    -2.73806669 eV
  | Occupation number:      0.00000000

  Overall HOMO-LUMO gap:      2.82068861 eV.

  Checking to see if s.c.f. parameters should be adjusted.

  Total energy components:
  | Sum of eigenvalues            :        -350.77461658 Ha       -9545.06296464 eV
  | XC energy correction          :         -90.02447482 Ha       -2449.69059867 eV
  | XC potential correction       :         115.65223085 Ha        3147.05732199 eV
  | Free-atom electrostatic energy:        -267.85014860 Ha       -7288.57338204 eV
  | Hartree energy correction     :         -22.61736510 Ha        -615.44981803 eV
  | Entropy correction            :           0.00000000 Ha           0.00000000 eV
  | ---------------------------
  | Total energy                  :        -615.61437425 Ha      -16751.71944139 eV
  | Total energy, T -> 0          :        -615.61437425 Ha      -16751.71944139 eV  <-- do not rely on this value for anything but (periodic) metals
  | Electronic free energy        :        -615.61437425 Ha      -16751.71944139 eV

  Derived energy quantities:
  | Kinetic energy                :         615.85205958 Ha       16758.18718839 eV
  | Electrostatic energy          :       -1141.44195901 Ha      -31060.21603112 eV
  | Energy correction for multipole
  | error in Hartree potential    :          -0.05941767 Ha          -1.61683718 eV
  | Sum of eigenvalues per atom                           :        -367.11780633 eV
  | Total energy (T->0) per atom                          :        -644.29690159 eV  <-- do not rely on this value for anything but (periodic) metals
  | Electronic free energy per atom                       :        -644.29690159 eV

  Self-consistency convergence accuracy:
  | Change of charge density      :  0.3917E+00
  | Change of sum of eigenvalues  :  0.1410E+03 eV
  | Change of total energy        :  0.1981E+01 eV

  End self-consistency iteration #     2       :  max(cpu_time)    wall_clock(cpu1)
  | Time for this iteration                    :        1.821 s           1.825 s
  | Charge density update                      :        0.422 s           0.421 s
  | Density mixing                             :        0.002 s           0.004 s
  | Hartree multipole update                   :        0.006 s           0.006 s
  | Hartree multipole summation                :        0.184 s           0.184 s
  | Integration                                :        1.147 s           1.147 s
  | Solution of K.-S. eqns.                    :        0.057 s           0.057 s
  | Total energy evaluation                    :        0.001 s           0.001 s

  Partial memory accounting:
  | Current value for overall tracked memory usage on task 0  :           1.347 MB
  | Peak value for overall tracked memory usage on task 0     :          17.520 MB after allocating zora_vector2
  | Largest tracked array allocation on task 0 so far         :           4.393 MB  when allocating hamiltonian_shell
  Note:  These values currently only include a subset of arrays which are explicitly tracked.
  The "true" memory usage will be greater.
------------------------------------------------------------

------------------------------------------------------------
          Begin self-consistency iteration #    3

  Date     :  20210620, Time     :  165857.268
------------------------------------------------------------
  Evaluating new KS density.
  Integration grid: deviation in total charge (<rho> - N_e) =   7.105427E-14
  Pulay mixing of updated and previous charge densities.

  Evaluating partitioned Hartree potential by multipole expansion.
  | Analytical far-field extrapolation by fixed multipoles:
  | Hartree multipole sum: apparent total charge =   0.170944E-03
  Summing up the Hartree potential with load balancing.
  Time summed over all CPUs for potential: real work        8.509 s, elapsed       10.202 s
  | RMS charge density error from multipole expansion :   0.201394E-01

  Integrating Hamiltonian matrix: batch-based integration with load balancing
  Time summed over all CPUs for integration: real work       61.814 s, elapsed       64.133 s
  Time get_set_full_local_matrix_scalapack:     0.008866 s

  Updating Kohn-Sham eigenvalues and eigenvectors using ELSI and the ELPA eigensolver.
  Finished transformation to standard eigenproblem
  | Time :     0.004 s
  Starting ELPA eigensolver
  Finished solving standard eigenproblem
  | Time :     0.032 s
  Finished back-transformation of eigenvectors
  | Time :     0.001 s

  Obtaining occupation numbers and chemical potential using ELSI.
  | Chemical potential (Fermi level):    -3.37674245 eV
  Highest occupied state (VBM) at     -5.45979296 eV
  | Occupation number:      2.00000000

  Lowest unoccupied state (CBM) at    -2.63335950 eV
  | Occupation number:      0.00000000

  Overall HOMO-LUMO gap:      2.82643345 eV.

  Total energy components:
  | Sum of eigenvalues            :        -350.14910379 Ha       -9528.04189552 eV
  | XC energy correction          :         -90.08073981 Ha       -2451.22164692 eV
  | XC potential correction       :         115.72212387 Ha        3148.95920775 eV
  | Free-atom electrostatic energy:        -267.85014860 Ha       -7288.57338204 eV
  | Hartree energy correction     :         -23.25324261 Ha        -632.75292549 eV
  | Entropy correction            :           0.00000000 Ha           0.00000000 eV
  | ---------------------------
  | Total energy                  :        -615.61111094 Ha      -16751.63064221 eV
  | Total energy, T -> 0          :        -615.61111094 Ha      -16751.63064221 eV  <-- do not rely on this value for anything but (periodic) metals
  | Electronic free energy        :        -615.61111094 Ha      -16751.63064221 eV

  Derived energy quantities:
  | Kinetic energy                :         614.58717987 Ha       16723.76806032 eV
  | Electrostatic energy          :       -1140.11755101 Ha      -31024.17705561 eV
  | Energy correction for multipole
  | error in Hartree potential    :          -0.06677838 Ha          -1.81713205 eV
  | Sum of eigenvalues per atom                           :        -366.46314983 eV
  | Total energy (T->0) per atom                          :        -644.29348624 eV  <-- do not rely on this value for anything but (periodic) metals
  | Electronic free energy per atom                       :        -644.29348624 eV

  Self-consistency convergence accuracy:
  | Change of charge density      :  0.1402E+00
  | Change of sum of eigenvalues  :  0.1702E+02 eV
  | Change of total energy        :  0.8880E-01 eV

  End self-consistency iteration #     3       :  max(cpu_time)    wall_clock(cpu1)
  | Time for this iteration                    :        1.821 s           1.819 s
  | Charge density update                      :        0.424 s           0.422 s
  | Density mixing                             :        0.003 s           0.003 s
  | Hartree multipole update                   :        0.006 s           0.006 s
  | Hartree multipole summation                :        0.184 s           0.184 s
  | Integration                                :        1.147 s           1.147 s
  | Solution of K.-S. eqns.                    :        0.053 s           0.054 s
  | Total energy evaluation                    :        0.000 s           0.001 s

  Partial memory accounting:
  | Current value for overall tracked memory usage on task 0  :           1.347 MB
  | Peak value for overall tracked memory usage on task 0     :          17.520 MB after allocating zora_vector2
  | Largest tracked array allocation on task 0 so far         :           4.393 MB  when allocating hamiltonian_shell
  Note:  These values currently only include a subset of arrays which are explicitly tracked.
  The "true" memory usage will be greater.
------------------------------------------------------------

------------------------------------------------------------
          Begin self-consistency iteration #    4

  Date     :  20210620, Time     :  165859.089
------------------------------------------------------------
  Evaluating new KS density.
  Integration grid: deviation in total charge (<rho> - N_e) =   1.563194E-13
  Pulay mixing of updated and previous charge densities.

  Evaluating partitioned Hartree potential by multipole expansion.
  | Analytical far-field extrapolation by fixed multipoles:
  | Hartree multipole sum: apparent total charge =   0.170911E-03
  Summing up the Hartree potential with load balancing.
  Time summed over all CPUs for potential: real work        8.504 s, elapsed       10.203 s
  | RMS charge density error from multipole expansion :   0.205863E-01

  Integrating Hamiltonian matrix: batch-based integration with load balancing
  Time summed over all CPUs for integration: real work       61.756 s, elapsed       64.115 s
  Time get_set_full_local_matrix_scalapack:     0.008809 s

  Updating Kohn-Sham eigenvalues and eigenvectors using ELSI and the ELPA eigensolver.
  Finished transformation to standard eigenproblem
  | Time :     0.004 s
  Starting ELPA eigensolver
  Finished solving standard eigenproblem
  | Time :     0.032 s
  Finished back-transformation of eigenvectors
  | Time :     0.001 s

  Obtaining occupation numbers and chemical potential using ELSI.
  | Chemical potential (Fermi level):    -3.43258140 eV
  Highest occupied state (VBM) at     -5.49847892 eV
  | Occupation number:      2.00000000

  Lowest unoccupied state (CBM) at    -2.67605786 eV
  | Occupation number:      0.00000000

  Overall HOMO-LUMO gap:      2.82242107 eV.

  Total energy components:
  | Sum of eigenvalues            :        -350.43893996 Ha       -9535.92873914 eV
  | XC energy correction          :         -90.06948977 Ha       -2450.91551784 eV
  | XC potential correction       :         115.70722620 Ha        3148.55382165 eV
  | Free-atom electrostatic energy:        -267.85014860 Ha       -7288.57338204 eV
  | Hartree energy correction     :         -22.95839880 Ha        -624.72981728 eV
  | Entropy correction            :           0.00000000 Ha           0.00000000 eV
  | ---------------------------
  | Total energy                  :        -615.60975094 Ha      -16751.59363465 eV
  | Total energy, T -> 0          :        -615.60975094 Ha      -16751.59363465 eV  <-- do not rely on this value for anything but (periodic) metals
  | Electronic free energy        :        -615.60975094 Ha      -16751.59363465 eV

  Derived energy quantities:
  | Kinetic energy                :         614.31337578 Ha       16716.31747195 eV
  | Electrostatic energy          :       -1139.85363695 Ha      -31016.99558876 eV
  | Energy correction for multipole
  | error in Hartree potential    :          -0.06753883 Ha          -1.83782513 eV
  | Sum of eigenvalues per atom                           :        -366.76648997 eV
  | Total energy (T->0) per atom                          :        -644.29206287 eV  <-- do not rely on this value for anything but (periodic) metals
  | Electronic free energy per atom                       :        -644.29206287 eV

  Self-consistency convergence accuracy:
  | Change of charge density      :  0.4199E-01
  | Change of sum of eigenvalues  : -0.7887E+01 eV
  | Change of total energy        :  0.3701E-01 eV

  End self-consistency iteration #     4       :  max(cpu_time)    wall_clock(cpu1)
  | Time for this iteration                    :        1.819 s           1.816 s
[...]
    115       0.00000           0.346883            9.43915
    116       0.00000           0.355157            9.66432

  Highest occupied state (VBM) at     -5.48764500 eV
  | Occupation number:      2.00000000

  Lowest unoccupied state (CBM) at    -2.66401683 eV
  | Occupation number:      0.00000000

  Overall HOMO-LUMO gap:      2.82362816 eV.

  Self-consistency cycle converged.

  End self-consistency iteration #    16       :  max(cpu_time)    wall_clock(cpu1)
  | Time for this iteration                    :        1.821 s           1.827 s
  | Charge density update                      :        0.425 s           0.422 s
  | Density mixing                             :        0.004 s           0.005 s
  | Hartree multipole update                   :        0.006 s           0.006 s
  | Hartree multipole summation                :        0.184 s           0.184 s
  | Integration                                :        1.147 s           1.146 s
  | Solution of K.-S. eqns.                    :        0.052 s           0.053 s
  | Total energy evaluation                    :        0.000 s           0.002 s

  Partial memory accounting:
  | Current value for overall tracked memory usage on task 0  :           1.347 MB
  | Peak value for overall tracked memory usage on task 0     :          17.520 MB after allocating zora_vector2
  | Largest tracked array allocation on task 0 so far         :           4.393 MB  when allocating hamiltonian_shell
  Note:  These values currently only include a subset of arrays which are explicitly tracked.
  The "true" memory usage will be greater.
------------------------------------------------------------
  |------------------------------------------------------
  | Final ELSI Output
  |------------------------------------------------------
  |
  | Physical Properties
  |   Number of electrons       :        0.10600000E+03
  |   Number of spins           :                     1
  |   Number of k-points        :                     1
  |   Number of states          :                   116
  |
  | Matrix Properties
  |   Matrix format             :           BLACS_DENSE
  |   Number of basis functions :                   774
  |   Matrix sparsity           :        0.67670880E-02
  |
  | Computational Details
  |   Parallel mode             :            MULTI_PROC
  |   Number of MPI tasks       :                    56
  |   Solver requested          :                  ELPA
  |   Number of ELSI calls      :                    17
  |
  |------------------------------------------------------
  | ELSI Project (c)  elsi-interchange.org
  |------------------------------------------------------

------------------------------------------------------------
          Post-processing: scaled ZORA corrections to eigenvalues and total energy.

  Date     :  20210620, Time     :  165922.797
------------------------------------------------------------
  Computing correction matrix for scaled ZORA eigenvalues.
  Evaluating scaled zora correction for each Kohn-Sham eigenstate.
  Evaluating scaled zora correction for each Kohn-Sham eigenstate.
  Time get_set_sparse_local_matrix_scalapack:     1.540186 s
  Writing Kohn-Sham eigenvalues.

  State    Occupation    Eigenvalue [Ha]    Eigenvalue [eV]
      1       2.00000          -9.903626         -269.49138
      2       2.00000          -9.902260         -269.45420
      3       2.00000          -9.901742         -269.44010
      4       2.00000          -9.900163         -269.39713
      5       2.00000          -9.899862         -269.38896
      6       2.00000          -9.899606         -269.38198
      7       2.00000          -9.899442         -269.37754
      8       2.00000          -9.899119         -269.36875
      9       2.00000          -9.898406         -269.34934
     10       2.00000          -9.898209         -269.34398
     11       2.00000          -9.897550         -269.32605
     12       2.00000          -9.896272         -269.29126
     13       2.00000          -9.896151         -269.28797
     14       2.00000          -9.891242         -269.15439
     15       2.00000          -9.889881         -269.11736
     16       2.00000          -9.885316         -268.99315
     17       2.00000          -0.830854          -22.60868
     18       2.00000          -0.785943          -21.38660
     19       2.00000          -0.759903          -20.67802
     20       2.00000          -0.739100          -20.11192
     21       2.00000          -0.689969          -18.77501
     22       2.00000          -0.682367          -18.56816
     23       2.00000          -0.656417          -17.86200
     24       2.00000          -0.653616          -17.78579
     25       2.00000          -0.585190          -15.92382
     26       2.00000          -0.581362          -15.81967
     27       2.00000          -0.545303          -14.83845
     28       2.00000          -0.533737          -14.52372
     29       2.00000          -0.516616          -14.05784
     30       2.00000          -0.465154          -12.65749
     31       2.00000          -0.463686          -12.61755
     32       2.00000          -0.457807          -12.45755
     33       2.00000          -0.443924          -12.07979
     34       2.00000          -0.413723          -11.25798
     35       2.00000          -0.402062          -10.94067
     36       2.00000          -0.383570          -10.43746
     37       2.00000          -0.383268          -10.42924
     38       2.00000          -0.382592          -10.41085
     39       2.00000          -0.377991          -10.28566
     40       2.00000          -0.370498          -10.08175
     41       2.00000          -0.357855           -9.73772
     42       2.00000          -0.339709           -9.24395
     43       2.00000          -0.336378           -9.15332
     44       2.00000          -0.310314           -8.44408
     45       2.00000          -0.309967           -8.43463
     46       2.00000          -0.305923           -8.32459
     47       2.00000          -0.291810           -7.94055
     48       2.00000          -0.288106           -7.83976
     49       2.00000          -0.283188           -7.70595
     50       2.00000          -0.246261           -6.70109
     51       2.00000          -0.232972           -6.33950
     52       2.00000          -0.207319           -5.64142
     53       2.00000          -0.201661           -5.48746
     54       0.00000          -0.097897           -2.66392
     55       0.00000          -0.061459           -1.67239
     56       0.00000          -0.040484           -1.10163
     57       0.00000          -0.013277           -0.36129
     58       0.00000          -0.005472           -0.14889
     59       0.00000           0.003043            0.08281
     60       0.00000           0.004159            0.11317
     61       0.00000           0.012252            0.33341
     62       0.00000           0.021512            0.58536
     63       0.00000           0.021727            0.59122
     64       0.00000           0.040092            1.09096
     65       0.00000           0.044170            1.20191
     66       0.00000           0.044251            1.20413
     67       0.00000           0.066863            1.81943
     68       0.00000           0.076142            2.07194
     69       0.00000           0.083812            2.28063
     70       0.00000           0.101258            2.75536
     71       0.00000           0.106187            2.88949
     72       0.00000           0.107654            2.92941
     73       0.00000           0.121972            3.31902
     74       0.00000           0.126597            3.44489
     75       0.00000           0.136432            3.71251
     76       0.00000           0.138051            3.75655
     77       0.00000           0.141071            3.83874
     78       0.00000           0.148836            4.05002
     79       0.00000           0.154222            4.19658
     80       0.00000           0.156652            4.26271
     81       0.00000           0.159618            4.34343
     82       0.00000           0.166375            4.52730
     83       0.00000           0.172387            4.69089
     84       0.00000           0.173767            4.72844
     85       0.00000           0.174620            4.75165
     86       0.00000           0.193894            5.27613
     87       0.00000           0.195645            5.32377
     88       0.00000           0.198602            5.40425
     89       0.00000           0.198924            5.41301
     90       0.00000           0.207682            5.65132
     91       0.00000           0.209693            5.70604
     92       0.00000           0.217553            5.91992
     93       0.00000           0.225859            6.14594
     94       0.00000           0.229607            6.24791
     95       0.00000           0.230295            6.26664
     96       0.00000           0.237625            6.46610
     97       0.00000           0.237669            6.46729
     98       0.00000           0.239365            6.51346
     99       0.00000           0.251299            6.83821
    100       0.00000           0.260070            7.07687
    101       0.00000           0.260685            7.09359
    102       0.00000           0.271879            7.39820
    103       0.00000           0.272834            7.42419
    104       0.00000           0.284238            7.73450
    105       0.00000           0.287653            7.82745
    106       0.00000           0.295860            8.05076
    107       0.00000           0.298320            8.11770
    108       0.00000           0.309576            8.42400
    109       0.00000           0.311036            8.46371
    110       0.00000           0.312459            8.50244
    111       0.00000           0.328735            8.94533
    112       0.00000           0.329621            8.96944
    113       0.00000           0.332350            9.04371
    114       0.00000           0.345199            9.39334
    115       0.00000           0.346867            9.43873
    116       0.00000           0.355141            9.66387

  Highest occupied state (VBM) at     -5.48746487 eV
  | Occupation number:      2.00000000

  Lowest unoccupied state (CBM) at    -2.66392093 eV
  | Occupation number:      0.00000000

  Overall HOMO-LUMO gap:      2.82354394 eV.

  Total energy components:
  | Sum of eigenvalues            :        -350.34992366 Ha       -9533.50648229 eV
  | XC energy correction          :         -90.04576761 Ha       -2450.27000500 eV
  | XC potential correction       :         115.67640374 Ha        3147.71509982 eV
  | Free-atom electrostatic energy:        -267.85014860 Ha       -7288.57338204 eV
  | Hartree energy correction     :         -22.90448366 Ha        -623.26271175 eV
  | Entropy correction            :           0.00000000 Ha           0.00000000 eV
  | ---------------------------
  | Total energy                  :        -615.47391979 Ha      -16747.89748126 eV
  | Total energy, T -> 0          :        -615.47391979 Ha      -16747.89748126 eV  <-- do not rely on this value for anything but (periodic) metals
  | Electronic free energy        :        -615.47391979 Ha      -16747.89748126 eV

  Derived energy quantities:
  | Kinetic energy                :         614.18099003 Ha       16712.71507242 eV
  | Electrostatic energy          :       -1139.60914222 Ha      -31010.34254867 eV
  | Energy correction for multipole
  | error in Hartree potential    :          -0.06808514 Ha          -1.85269079 eV
  | Sum of eigenvalues per atom                           :        -366.67332624 eV
  | Total energy (T->0) per atom                          :        -644.14990313 eV  <-- do not rely on this value for anything but (periodic) metals
  | Electronic free energy per atom                       :        -644.14990313 eV
  End evaluation of scaled ZORA corrections.
  | Time for scaled ZORA corrections           :        2.029 s           2.039 s
------------------------------------------------------------

  Energy and forces in a compact form:
  | Total energy uncorrected      :         -0.167478974812561E+05 eV
  | Total energy corrected        :         -0.167478974812561E+05 eV  <-- do not rely on this value for anything but (periodic) metals
  | Electronic free energy        :         -0.167478974812561E+05 eV

  ------------------------------------ 
  Start decomposition of the XC Energy 
  ------------------------------------ 
  X and C from original XC functional choice 
  Hartree-Fock Energy :          0.000000000 Ha              0.000000000 eV
  X Energy            :        -86.496716852 Ha          -2353.695420247 eV
  C Energy            :         -3.549050757 Ha            -96.574584753 eV
  Total XC Energy     :        -90.045767609 Ha          -2450.270005000 eV
  ------------------------------------ 
  LDA X and C from self-consistent density 
  X Energy LDA        :        -78.336316221 Ha          -2131.639620993 eV
  C Energy LDA        :         -6.841447510 Ha           -186.165258741 eV
  ------------------------------------ 
  End decomposition of the XC Energy 
  ------------------------------------ 

------------------------------------------------------------

------------------------------------------------------------------------------
  Final output of selected total energy values:

  The following output summarizes some interesting total energy values
  at the end of a run (AFTER all relaxation, molecular dynamics, etc.).

  | Total energy of the DFT / Hartree-Fock s.c.f. calculation      :         -16747.897481256 eV
  | Final zero-broadening corrected energy (caution - metals only) :         -16747.897481256 eV
  | For reference only, the value of 1 Hartree used in FHI-aims is :             27.211384500 eV

  Before relying on these values, please be sure to understand exactly which
  total energy value is referred to by a given number. Different objects may
  all carry the same name 'total energy'. Definitions:

  Total energy of the DFT / Hartree-Fock s.c.f. calculation:
  | Note that this energy does not include ANY quantities calculated after the
  | s.c.f. cycle, in particular not ANY RPA, MP2, etc. many-body perturbation terms.
  | Scalar relativistic effects have been included in the 'scaled ZORA' approximation.

  Final zero-broadening corrected energy:
  | For metallic systems only, a broadening of the occupation numbers at the Fermi
  | level can be extrapolated back to zero broadening by an electron-gas inspired
  | formula. For all systems that are not real metals, this value can be
  | meaningless and should be avoided.

------------------------------------------------------------------------------
  Methods described in the following list of references were used in this FHI-aims run.
  If you publish the results, please make sure to cite these reference if they apply.
  FHI-aims is an academic code, and for our developers (often, Ph.D. students
  and postdocs), scientific credit in the community is essential.
  Thank you for helping us!

  For any use of FHI-aims, please cite:

    Volker Blum, Ralf Gehrke, Felix Hanke, Paula Havu, Ville Havu,
    Xinguo Ren, Karsten Reuter, and Matthias Scheffler
    'Ab initio molecular simulations with numeric atom-centered orbitals'
    Computer Physics Communications 180, 2175-2196 (2009)
    http://dx.doi.org/10.1016/j.cpc.2009.06.022


  The scalable eigensolver library ELPA was used in your run.
  ELPA is essential especially for large systems on hundreds or thousands of CPUs.
  For ELPA, please cite:

    Andreas Marek, Volker Blum, Rainer Johanni, Ville Havu, Bruno Lang,
    Thomas Auckenthaler, Alexander Heinecke, Hans-Joachim Bungartz, and Hermann Lederer,
    'The ELPA Library - Scalable Parallel Eigenvalue Solutions
    for Electronic Structure Theory and Computational Science'
    The Journal of Physics: Condensed Matter 26, 213201 (2014).
    http://dx.doi.org/10.1088/0953-8984/26/21/213201


  The ELSI infrastructure was used in your run to solve the Kohn-Sham electronic structure.
  Please check out http://elsi-interchange.org to learn more.
  If scalability is important for your project, please acknowledge ELSI by citing:

    V. W-z. Yu, F. Corsetti, A. Garcia, W. P. Huhn, M. Jacquelin, W. Jia,
    B. Lange, L. Lin, J. Lu, W. Mi, A. Seifitokaldani, A. Vazquez-Mayagoitia,
    C. Yang, H. Yang, and V. Blum
    'ELSI: A unified software interface for Kohn-Sham electronic structure solvers'
    Computer Physics Communications 222, 267-285 (2018).
    http://dx.doi.org/10.1016/j.cpc.2017.09.007


  For the real-space grid partitioning and parallelization used in this calculation, please cite:

    Ville Havu, Volker Blum, Paula Havu, and Matthias Scheffler,
    'Efficient O(N) integration for all-electron electronic structure calculation'
    'using numerically tabulated basis functions'
    Journal of Computational Physics 228, 8367-8379 (2009).
    http://dx.doi.org/10.1016/j.jcp.2009.08.008

  Of course, there are many other important community references, e.g., those cited in the
  above references. Our list is limited to references that describe implementations in the
  FHI-aims code. The reason is purely practical (length of this list) - please credit others as well.

------------------------------------------------------------
          Leaving FHI-aims.
          Date     :  20210620, Time     :  165925.082

          Computational steps:
          | Number of self-consistency cycles          :           16
          | Number of SCF (re)initializations          :            1

          Detailed time accounting                     :  max(cpu_time)    wall_clock(cpu1)
          | Total time                                 :       34.560 s          34.905 s
          | Preparation time                           :        0.195 s           0.211 s
          | Boundary condition initalization           :        0.001 s           0.004 s
          | Grid partitioning                          :        0.281 s           0.285 s
          | Preloading free-atom quantities on grid    :        0.013 s           0.016 s
          | Free-atom superposition energy             :        0.026 s           0.027 s
          | Total time for integrations                :       20.616 s          20.621 s
          | Total time for solution of K.-S. equations :        0.942 s           0.966 s
          | Total time for density update              :        6.790 s           6.756 s
          | Total time for mixing                      :        0.062 s           0.067 s
          | Total time for Hartree multipole update    :        0.093 s           0.098 s
          | Total time for Hartree multipole sum       :        3.006 s           3.011 s
          | Total time for total energy evaluation     :        0.008 s           0.030 s
          | Total time for scaled ZORA corrections     :        2.029 s           2.039 s

          Partial memory accounting:
          | Residual value for overall tracked memory usage across tasks :     0.000000 MB (should be 0.000000 MB)
          | Peak values for overall tracked memory usage (after allocating zora_vector2):
          |   Minimum:       16.986 MB (on task  9)
          |   Maximum:       19.615 MB (on task 18)
          |   Average:       18.554 MB
          | Largest tracked array allocation (hamiltonian_shell):
          |   Minimum:        4.393 MB (on task  1)
          |   Maximum:        4.393 MB (on task  1)
          |   Average:        4.393 MB
          Note:  These values currently only include a subset of arrays which are explicitly tracked.
          The "true" memory usage will be greater.

          Have a nice day.
------------------------------------------------------------
