  MPI-parallelism will be employed.
------------------------------------------------------------
          Invoking FHI-aims ...
          Version 180607
          Git rev. (modified): 6724847 Fix JSON memory corruption in scf_solver
          Compiled on 2018/06/27 at 16:00:31 on host coe.psc.edu.

          When using FHI-aims, please cite the following reference:

          Volker Blum, Ralf Gehrke, Felix Hanke, Paula Havu,
          Ville Havu, Xinguo Ren, Karsten Reuter, and Matthias Scheffler,
          'Ab Initio Molecular Simulations with Numeric Atom-Centered Orbitals',
          Computer Physics Communications 180, 2175-2196 (2009)

          For any questions about FHI-aims, please visit the aimsclub website
          with its forums and wiki. Contributions to both the forums and the
          wiki are warmly encouraged - they are for you, and everyone is welcome there.

------------------------------------------------------------



  Date     :  20210620, Time     :  160907.184
  Time zero on CPU 1             :   0.258067000000000E+00  s.
  Internal wall clock time zero  :           393437347.184  s.

  FHI-aims created a unique identifier for this run for later identification
  aims_uuid : 5D526CEC-16B1-4E3C-A778-1228FF0C3F56

  Using       56 parallel tasks.
  Task        0 on host d030 reporting.
  Task        1 on host d030 reporting.
  Task        2 on host d030 reporting.
  Task        3 on host d030 reporting.
  Task        4 on host d030 reporting.
  Task        5 on host d030 reporting.
  Task        6 on host d030 reporting.
  Task        7 on host d030 reporting.
  Task        8 on host d030 reporting.
  Task        9 on host d030 reporting.
  Task       10 on host d030 reporting.
  Task       11 on host d030 reporting.
  Task       12 on host d030 reporting.
  Task       13 on host d030 reporting.
  Task       14 on host d030 reporting.
  Task       15 on host d030 reporting.
  Task       16 on host d030 reporting.
  Task       17 on host d030 reporting.
  Task       18 on host d030 reporting.
  Task       19 on host d030 reporting.
  Task       20 on host d030 reporting.
  Task       21 on host d030 reporting.
  Task       22 on host d030 reporting.
  Task       23 on host d030 reporting.
  Task       24 on host d030 reporting.
  Task       25 on host d030 reporting.
  Task       26 on host d030 reporting.
  Task       27 on host d030 reporting.
  Task       28 on host d030 reporting.
  Task       29 on host d030 reporting.
  Task       30 on host d030 reporting.
  Task       31 on host d030 reporting.
  Task       32 on host d030 reporting.
  Task       33 on host d030 reporting.
  Task       34 on host d030 reporting.
  Task       35 on host d030 reporting.
  Task       36 on host d030 reporting.
  Task       37 on host d030 reporting.
  Task       38 on host d030 reporting.
  Task       39 on host d030 reporting.
  Task       40 on host d030 reporting.
  Task       41 on host d030 reporting.
  Task       42 on host d030 reporting.
  Task       43 on host d030 reporting.
  Task       44 on host d030 reporting.
  Task       45 on host d030 reporting.
  Task       46 on host d030 reporting.
  Task       47 on host d030 reporting.
  Task       48 on host d030 reporting.
  Task       49 on host d030 reporting.
  Task       50 on host d030 reporting.
  Task       51 on host d030 reporting.
  Task       52 on host d030 reporting.
  Task       53 on host d030 reporting.
  Task       54 on host d030 reporting.
  Task       55 on host d030 reporting.

  Performing system and environment tests:
  *** Environment variable OMP_NUM_THREADS is not set
  *** For performance reasons you might want to set it to 1
  | Stacksize not measured: no C compiler
  | Checking for scalapack...
  | Testing pdtran()...
  | All pdtran() tests passed.

  Obtaining array dimensions for all initial allocations:
  
  -----------------------------------------------------------------------
  Parsing control.in (first pass over file, find array dimensions only).
  The contents of control.in will be repeated verbatim below
  unless switched off by setting 'verbatim_writeout .false.' .
  in the first line of control.in .
  -----------------------------------------------------------------------
  
  #===============================================================================
  # FHI-aims file: ./Runs/es/control.in
  # Created using the Atomic Simulation Environment (ASE)
  # Mon Jan 13 16:04:38 2020
  #===============================================================================
  xc                                 pbe
  relativistic                       zora scalar 1e-12
  occupation_type                    gaussian 0.0001
  load_balancing                     .true.
  KS_method                          scalapack_fast
  mixer                              pulay
  n_max_pulay                        5
  charge_mix_param                   0.4
  sc_accuracy_etot                   1e-6
  sc_accuracy_eev                    1e-4
  sc_accuracy_rho                    1e-6
  sc_iter_limit                      100
  prodbas_threshold                  1e-4
  basis_threshold                    1e-5
  override_illconditioning           .true.
  use_logsbt                         .true.
  spin                               none
  charge                             0
  #===============================================================================
  
  ################################################################################
  #
  #  FHI-aims code project
  # Volker Blum, Fritz Haber Institute Berlin, 2009
  #
  #  Suggested "tight" defaults for H atom (to be pasted into control.in file)
  #
  ################################################################################
    species        H
  #     global species definitions
      nucleus             1
      mass                1.00794
  #
      l_hartree           6
  #
      cut_pot             4.0  2.0  1.0
      basis_dep_cutoff    1e-4
  #
      radial_base         24 7.0
      radial_multiplier   2
      angular_grids       specified
        division   0.1930   50
        division   0.3175  110
        division   0.4293  194
        division   0.5066  302
        division   0.5626  434
  #      division   0.5922  590
  #      division   0.6227  974
  #      division   0.6868 1202
  #      outer_grid  770
        outer_grid  434
  ################################################################################
  #
  #  Definition of "minimal" basis
  #
  ################################################################################
  #     valence basis states
      valence      1  s   1.
  #     ion occupancy
      ion_occ      1  s   0.5
  ################################################################################
  #
  #  Suggested additional basis functions. For production calculations,
  #  uncomment them one after another (the most important basis functions are
  #  listed first).
  #
  #  Basis constructed for dimers: 0.5 A, 0.7 A, 1.0 A, 1.5 A, 2.5 A
  #
  ################################################################################
  #  "First tier" - improvements: -1014.90 meV to -62.69 meV
       hydro 2 s 2.1
       hydro 2 p 3.5
  #  "Second tier" - improvements: -12.89 meV to -1.83 meV
       hydro 1 s 0.85
       hydro 2 p 3.7
       hydro 2 s 1.2
       hydro 3 d 7
  #  "Third tier" - improvements: -0.25 meV to -0.12 meV
  #     hydro 4 f 11.2
  #     hydro 3 p 4.8
  #     hydro 4 d 9
  #     hydro 3 s 3.2
  ################################################################################
  #
  # For methods that use the localized form of the "resolution of identity" for
  # the two-electron Coulomb operator (RI_method LVL), particularly Hartree-Fock and
  # hybrid density functional calculations, the highest accuracy can be obtained by
  # uncommenting the line beginning with "for_aux"  below, thus adding an extra g radial
  # function to the construction of the product basis set for the expansion.
  # See Ref. New J. Phys. 17, 093020 (2015) for more information, particularly Figs. 1 and 6.
  #
  ################################################################################
  #
  # for_aux hydro 5 g 6.0
  ################################################################################
  #
  #  FHI-aims code project
  # Volker Blum, Fritz Haber Institute Berlin, 2009
  #
  #  Suggested "tight" defaults for C atom (to be pasted into control.in file)
  #
  ################################################################################
    species        C
  #     global species definitions
      nucleus             6
      mass                12.0107
  #
      l_hartree           6
  #
      cut_pot             4.0  2.0  1.0
      basis_dep_cutoff    1e-4
  #
      radial_base         34 7.0
      radial_multiplier   2
      angular_grids specified
        division   0.2187   50
        division   0.4416  110
        division   0.6335  194
        division   0.7727  302
        division   0.8772  434
  #      division   0.9334  590
  #      division   0.9924  770
  #      division   1.0230  974
  #      division   1.5020 1202
  #     outer_grid  974
        outer_grid  434
  ################################################################################
  #
  #  Definition of "minimal" basis
  #
  ################################################################################
  #     valence basis states
      valence      2  s   2.
      valence      2  p   2.
  #     ion occupancy
      ion_occ      2  s   1.
      ion_occ      2  p   1.
  ################################################################################
  #
  #  Suggested additional basis functions. For production calculations,
  #  uncomment them one after another (the most important basis functions are
  #  listed first).
  #
  #  Constructed for dimers: 1.0 A, 1.25 A, 1.5 A, 2.0 A, 3.0 A
  #
  ################################################################################
  #  "First tier" - improvements: -1214.57 meV to -155.61 meV
       hydro 2 p 1.7
       hydro 3 d 6
       hydro 2 s 4.9
  #  "Second tier" - improvements: -67.75 meV to -5.23 meV
       hydro 4 f 9.8
       hydro 3 p 5.2
       hydro 3 s 4.3
       hydro 5 g 14.4
       hydro 3 d 6.2
  #  "Third tier" - improvements: -2.43 meV to -0.60 meV
  #     hydro 2 p 5.6
  #     hydro 2 s 1.4
  #     hydro 3 d 4.9
  #     hydro 4 f 11.2
  #  "Fourth tier" - improvements: -0.39 meV to -0.18 meV
  #     hydro 2 p 2.1
  #     hydro 5 g 16.4
  #     hydro 4 d 13.2
  #     hydro 3 s 13.6
  #     hydro 4 f 17.6
  #  Further basis functions - improvements: -0.08 meV and below
  #     hydro 3 s 2
  #     hydro 3 p 6
  #     hydro 4 d 20
  ################################################################################
  #
  # For methods that use the localized form of the "resolution of identity" for
  # the two-electron Coulomb operator (RI_method LVL), particularly Hartree-Fock and
  # hybrid density functional calculations, the highest accuracy can be obtained by
  # uncommenting the line beginning with "for_aux"  below, thus adding an extra g radial
  # function to the construction of the product basis set for the expansion.
  # See Ref. New J. Phys. 17, 093020 (2015) for more information, particularly Figs. 1 and 6.
  #
  ################################################################################
  #
  # for_aux hydro 5 g 6.0
  
  -----------------------------------------------------------------------
  Completed first pass over input file control.in .
  -----------------------------------------------------------------------
  
  
  -----------------------------------------------------------------------
  Parsing geometry.in (first pass over file, find array dimensions only).
  The contents of geometry.in will be repeated verbatim below
  unless switched off by setting 'verbatim_writeout .false.' .
  in the first line of geometry.in .
  -----------------------------------------------------------------------
  
  #=======================================================
  # FHI-aims file: geometry.in
  # Created using the Atomic Simulation Environment (ASE)
  # Sun Jun 20 15:47:01 2021
  #=======================================================
  atom 13.3802529999999997 46.6644810000000021 45.0372470000000007 C
  atom 12.2773129999999995 47.4807419999999993 44.9816459999999978 C
  atom 14.0235699999999994 46.5672619999999995 44.1620149999999967 H
  atom 13.6946589999999997 45.9561649999999986 46.1952819999999988 C
  atom 12.0457970000000003 48.0199339999999992 44.0632469999999969 H
  atom 11.4525649999999999 47.6278900000000007 46.0814149999999998 C
  atom 12.8668160000000000 46.0908310000000014 47.2938079999999985 C
  atom 14.5763250000000006 45.3146550000000019 46.2269020000000026 H
  atom 10.5825449999999996 48.2808279999999996 46.0386039999999994 H
  atom 11.7621599999999997 46.9301219999999972 47.2467329999999990 C
  atom 12.9598499999999994 45.4187310000000011 48.6470690000000019 C
  atom 11.1043090000000007 46.9251989999999992 48.5530979999999985 C
  atom 11.7903369999999992 46.0352770000000007 49.3885390000000015 C
  atom 12.9917280000000002 43.8793870000000013 48.5710389999999990 C
  atom 13.8977679999999992 45.7242790000000028 49.1393100000000018 H
  atom 10.0348849999999992 47.6739510000000024 49.0318380000000005 C
  atom 11.3991150000000001 45.8890079999999969 50.7092919999999978 C
  atom 11.7753700000000006 43.1949800000000010 47.9739909999999981 C
  atom 13.8839590000000008 43.6109340000000003 47.9812749999999966 H
  atom 13.0772849999999998 43.2334820000000022 49.9378019999999978 C
  atom 9.6570359999999997 47.5155510000000021 50.3588080000000033 C
  atom 9.5056440000000002 48.3754100000000022 48.3884249999999980 H
  atom 10.3282469999999993 46.6273869999999988 51.1818140000000028 C
  atom 11.9291590000000003 45.2053039999999982 51.3706460000000007 H
  atom 11.2338059999999995 42.2936309999999978 48.8932780000000022 C
  atom 11.2438170000000000 43.2967709999999997 46.6980029999999999 C
  atom 12.0177449999999997 42.3458449999999971 50.1303630000000027 C
  atom 14.0148860000000006 43.4340740000000025 50.9354280000000017 C
  atom 8.8189510000000002 48.0960570000000018 50.7481950000000026 H
  atom 10.0141259999999992 46.5106529999999978 52.2194100000000034 H
  atom 10.1660939999999993 41.4824690000000018 48.5406630000000021 C
  atom 10.1660190000000004 42.4799840000000017 46.3524930000000026 C
  atom 11.6673770000000001 43.9852210000000028 45.9673700000000025 H
  atom 11.8644180000000006 41.6869299999999967 51.3470200000000006 C
  atom 13.8605459999999994 42.7702370000000016 52.1391160000000013 C
  atom 14.8593299999999999 44.1059989999999971 50.7821240000000032 H
  atom 9.7426180000000002 40.7748559999999998 49.2528220000000019 H
  atom 9.6431520000000006 41.5807440000000028 47.2660959999999974 C
  atom 9.7359050000000007 42.5404600000000030 45.3518469999999994 H
  atom 11.0343099999999996 40.9984790000000032 51.5116919999999965 H
  atom 12.7955369999999995 41.9193429999999978 52.3412709999999990 C
  atom 14.5889729999999993 42.9309220000000025 52.9331669999999974 H
  atom 8.8022819999999999 40.9474960000000010 46.9838260000000005 H
  atom 12.6926970000000008 41.4151359999999968 53.3040799999999990 H
  
  -----------------------------------------------------------------------
  Completed first pass over input file geometry.in .
  -----------------------------------------------------------------------
  

  Basic array size parameters:
  | Number of species                 :        2
  | Number of atoms                   :       44
  | Max. basis fn. angular momentum   :        4
  | Max. atomic/ionic basis occupied n:        2
  | Max. number of basis fn. types    :        2
  | Max. radial fns per species/type  :        8
  | Max. logarithmic grid size        :     1277
  | Max. radial integration grid size :       69
  | Max. angular integration grid size:      434
  | Max. angular grid division number :        8
  | Radial grid for Hartree potential :     1277
  | Number of spin channels           :        1

------------------------------------------------------------
          Reading file control.in.
------------------------------------------------------------
  XC: Using PBE gradient-corrected functionals.
  Scalar relativistic treatment of kinetic energy: ZORA.
  Threshold value for ZORA:   0.100000E-11
  Occupation type: Gaussian broadening, width =   0.100000E-03 eV.
  Since 'load_balancing .true.' is present in control.in, automatically turning on 'use_local_index .true.'.
  Using load balancing for integrations.
  Kohn-Sham electronic structure solved by the ELSI library.
  Using pulay charge density mixing.
  Pulay mixing - number of memorized iterations:    5
  Charge density mixing - mixing parameter:     0.4000
  Convergence accuracy of total energy:  0.1000E-05
  Convergence accuracy of sum of eigenvalues:  0.1000E-03
  Convergence accuracy of self-consistent charge density:  0.1000E-05
  Maximum number of s.-c. iterations  :   100
  * Ignoring prodbas_threshold
  Threshold for basis singularities:  0.1000E-04
  override_illconditioning: Explicitly overriding any built-in checks for an ill-conditioned overlap matrix.
  *** WARNING: If you use this flag, you should really know what you are doing.
  *** DO NOT keep this flag set by default in all your control.in files.
  Using 1D integrations for auxiliary 2-center integrals.
  Spin treatment: No spin polarisation.
  Charge =   0.000000E+00: Neutral system requested explicitly.
 
  Reading configuration options for species H                   .
  | Found nuclear charge :   1.0000
  | Found atomic mass :    1.00794000000000      amu
  | Found l_max for Hartree potential  :   6
  | Found cutoff potl. onset [A], width [A], scale factor :    4.00000    2.00000    1.00000
  | Threshold for basis-dependent cutoff potential is   0.100000E-03
  | Found data for basic radial integration grid :    24 points, outermost radius =    7.000 A
  | Found multiplier for basic radial grid :   2
  | Found angular grid specification: user-specified.
  | Specified grid contains     6 separate shells.
  | Check grid settings after all constraints further below.
  | Found free-atom valence shell :  1 s   1.000
  | No ionic wave fns used. Skipping ion_occ.
  | Found hydrogenic basis function :  2 s   2.100
  | Found hydrogenic basis function :  2 p   3.500
  | Found hydrogenic basis function :  1 s   0.850
  | Found hydrogenic basis function :  2 p   3.700
  | Found hydrogenic basis function :  2 s   1.200
  | Found hydrogenic basis function :  3 d   7.000
  Species H                   : Missing cutoff potential type.
  Defaulting to exp(1/x)/(1-x)^2 type cutoff potential.
  Species H : No 'logarithmic' tag. Using default grid for free atom:
  | Default logarithmic grid data [bohr] : 0.1000E-03 0.1000E+03 0.1012E+01
  Species H : On-site basis accuracy parameter (for Gram-Schmidt orthonormalisation) not specified.
  Using default value basis_acc =  0.1000000E-03.
  Species H                   : Using default innermost maximum threshold i_radial=  2 for radial functions.
  Species H                   : Default cutoff onset for free atom density etc. : 0.40000000E+01 AA.
  Species H                   : Basic radial grid will be enhanced according to radial_multiplier =   2, to contain    49 grid points.
 
  Reading configuration options for species C                   .
  | Found nuclear charge :   6.0000
  | Found atomic mass :    12.0107000000000      amu
  | Found l_max for Hartree potential  :   6
  | Found cutoff potl. onset [A], width [A], scale factor :    4.00000    2.00000    1.00000
  | Threshold for basis-dependent cutoff potential is   0.100000E-03
  | Found data for basic radial integration grid :    34 points, outermost radius =    7.000 A
  | Found multiplier for basic radial grid :   2
  | Found angular grid specification: user-specified.
  | Specified grid contains     6 separate shells.
  | Check grid settings after all constraints further below.
  | Found free-atom valence shell :  2 s   2.000
  | Found free-atom valence shell :  2 p   2.000
  | No ionic wave fns used. Skipping ion_occ.
  | No ionic wave fns used. Skipping ion_occ.
  | Found hydrogenic basis function :  2 p   1.700
  | Found hydrogenic basis function :  3 d   6.000
  | Found hydrogenic basis function :  2 s   4.900
  | Found hydrogenic basis function :  4 f   9.800
  | Found hydrogenic basis function :  3 p   5.200
  | Found hydrogenic basis function :  3 s   4.300
  | Found hydrogenic basis function :  5 g  14.400
  | Found hydrogenic basis function :  3 d   6.200
  Species C                   : Missing cutoff potential type.
  Defaulting to exp(1/x)/(1-x)^2 type cutoff potential.
  Species C : No 'logarithmic' tag. Using default grid for free atom:
  | Default logarithmic grid data [bohr] : 0.1000E-03 0.1000E+03 0.1012E+01
  Species C : On-site basis accuracy parameter (for Gram-Schmidt orthonormalisation) not specified.
  Using default value basis_acc =  0.1000000E-03.
  Species C                   : Using default innermost maximum threshold i_radial=  2 for radial functions.
  Species C                   : Default cutoff onset for free atom density etc. : 0.40000000E+01 AA.
  Species C                   : Basic radial grid will be enhanced according to radial_multiplier =   2, to contain    69 grid points.
 
  Finished reading input file 'control.in'. Consistency checks are next.
 
  MPI_IN_PLACE appears to work with this MPI implementation.
  | Keeping use_mpi_in_place .true. (see manual).
  Target number of points in a grid batch is not set. Defaulting to  100
  Method for grid partitioning is not set. Defaulting to parallel hash+maxmin partitioning.
  Batch size limit is not set. Defaulting to    200
  By default, will store active basis functions for each batch.
  If in need of memory, prune_basis_once .false. can be used to disable this option.
  communication_type for Hartree potential was not specified.
  Defaulting to calc_hartree .
  Pulay mixer: Number of initial linear mixing iterations not set.
  Defaulting to    0 iterations.
  Work space size for distributed Hartree potential not set.
  Defaulting to   0.200000E+03 MB.
  Algorithm-dependent basis array size parameters:
  | n_max_pulay                         :        5
  Presetting      1001 iterations before the initial mixing cycle
  is restarted anyway using the sc_init_iter criterion / keyword.
  Presetting a factor      1.000 between actual scf density residual
  and density convergence criterion sc_accuracy_rho below which sc_init_iter
  takes no effect.
  Calculation of forces was not defined in control.in. No forces will be calculated.
  Geometry relaxation not requested: no relaxation will be performed.
  No accuracy limit for integral partition fn. given. Defaulting to  0.1000E-14.
  No threshold value for u(r) in integrations given. Defaulting to  0.1000E-05.
  No accuracy for occupation numbers given. Defaulting to  0.1000E-12.
  No threshold value for occupation numbers given. Defaulting to  0.0000E+00.
  No accuracy for fermi level given. Defaulting to  0.1000E-19.
  Maximum # of iterations to find E_F not set. Defaulting to  200.
  Will not use alltoall communication since running on < 1024 CPUs.
  partition_type (choice of integration weights) for integrals was not specified.
  | Using a version of the partition function of Stratmann and coworkers ('stratmann_sparse').
  | At each grid point, the set of atoms used to build the partition table is smoothly restricted to
  | only those atoms whose free-atom density would be non-zero at that grid point.
  Partitioning for Hartree potential was not defined. Using partition_type for integrals.
  | Adjusted default value of keyword multip_moments_threshold to:       0.10000000E-11
  | This value may affect high angular momentum components of the Hartree potential in periodic systems.
  No q(lm)/r^(l+1) cutoff set for long-range Hartree potential.
  | Using default value of  0.100000E-09 .
  | Verify using the multipole_threshold keyword.
  Defaulting to new monopole extrapolation.
  Density update method: automatic selection selected.
 * Warning: use_local_index and/or load_balancing needs packed_matrix_format = index
 * Changing the default setting to packed_matrix_format = index
------------------------------------------------------------


------------------------------------------------------------
          Reading geometry description geometry.in.
------------------------------------------------------------
  Input structure read successfully.
  The structure contains       44 atoms,  and a total of        174.000 electrons.

  Input geometry:
  | No unit cell requested.
  | Atomic structure:
  |       Atom                x [A]            y [A]            z [A]
  |    1: Species C            13.38025300       46.66448100       45.03724700
  |    2: Species C            12.27731300       47.48074200       44.98164600
  |    3: Species H            14.02357000       46.56726200       44.16201500
  |    4: Species C            13.69465900       45.95616500       46.19528200
  |    5: Species H            12.04579700       48.01993400       44.06324700
  |    6: Species C            11.45256500       47.62789000       46.08141500
  |    7: Species C            12.86681600       46.09083100       47.29380800
  |    8: Species H            14.57632500       45.31465500       46.22690200
  |    9: Species H            10.58254500       48.28082800       46.03860400
  |   10: Species C            11.76216000       46.93012200       47.24673300
  |   11: Species C            12.95985000       45.41873100       48.64706900
  |   12: Species C            11.10430900       46.92519900       48.55309800
  |   13: Species C            11.79033700       46.03527700       49.38853900
  |   14: Species C            12.99172800       43.87938700       48.57103900
  |   15: Species H            13.89776800       45.72427900       49.13931000
  |   16: Species C            10.03488500       47.67395100       49.03183800
  |   17: Species C            11.39911500       45.88900800       50.70929200
  |   18: Species C            11.77537000       43.19498000       47.97399100
  |   19: Species H            13.88395900       43.61093400       47.98127500
  |   20: Species C            13.07728500       43.23348200       49.93780200
  |   21: Species C             9.65703600       47.51555100       50.35880800
  |   22: Species H             9.50564400       48.37541000       48.38842500
  |   23: Species C            10.32824700       46.62738700       51.18181400
  |   24: Species H            11.92915900       45.20530400       51.37064600
  |   25: Species C            11.23380600       42.29363100       48.89327800
  |   26: Species C            11.24381700       43.29677100       46.69800300
  |   27: Species C            12.01774500       42.34584500       50.13036300
  |   28: Species C            14.01488600       43.43407400       50.93542800
  |   29: Species H             8.81895100       48.09605700       50.74819500
  |   30: Species H            10.01412600       46.51065300       52.21941000
  |   31: Species C            10.16609400       41.48246900       48.54066300
  |   32: Species C            10.16601900       42.47998400       46.35249300
  |   33: Species H            11.66737700       43.98522100       45.96737000
  |   34: Species C            11.86441800       41.68693000       51.34702000
  |   35: Species C            13.86054600       42.77023700       52.13911600
  |   36: Species H            14.85933000       44.10599900       50.78212400
  |   37: Species H             9.74261800       40.77485600       49.25282200
  |   38: Species C             9.64315200       41.58074400       47.26609600
  |   39: Species H             9.73590500       42.54046000       45.35184700
  |   40: Species H            11.03431000       40.99847900       51.51169200
  |   41: Species C            12.79553700       41.91934300       52.34127100
  |   42: Species H            14.58897300       42.93092200       52.93316700
  |   43: Species H             8.80228200       40.94749600       46.98382600
  |   44: Species H            12.69269700       41.41513600       53.30408000
  |

  | The smallest distance between any two atoms is         1.08862097 AA.
  |
  | The first atom of this pair is atom number                      6 .
  | The second atom of this pair is atom number                     9 .

  Number of empty states per atom not set in control.in - providing a guess from actual geometry.
  | Total number of empty states used during s.c.f. cycle:      105
  If you use a very high smearing, use empty_states (per atom!) in control.in to increase this value.

  Structure-dependent array size parameters: 
  | Maximum number of distinct radial functions  :       18
  | Maximum number of basis functions            :     1284
  | Number of Kohn-Sham states (occupied + empty):      192
------------------------------------------------------------

------------------------------------------------------------
          Preparing all fixed parts of the calculation.
------------------------------------------------------------
  Determining machine precision:
    2.225073858507201E-308
  Setting up grids for atomic and cluster calculations.

  Creating wave function, potential, and density for free atoms.

  Species: H

  List of occupied orbitals and eigenvalues:
    n    l              occ      energy [Ha]    energy [eV]
    1    0           1.0000        -0.238386        -6.4868


  Species: C

  List of occupied orbitals and eigenvalues:
    n    l              occ      energy [Ha]    energy [eV]
    1    0           2.0000       -10.049212      -273.4530
    2    0           2.0000        -0.504761       -13.7352
    2    1           2.0000        -0.193631        -5.2690

  Creating fixed part of basis set: Ionic, confined, hydrogenic.
 
  H                    hydrogenic:
 
  List of hydrogenic basis orbitals: 
    n    l      effective z      eigenvalue [eV]  inner max. [A]     outer max. [A]     outer radius [A]   
    2    0         2.100000       -14.9965           0.193243           1.317208           5.373006
    2    1         3.500000       -41.6672           0.602369           0.602369           4.056063
    1    0         0.850000        -9.8292           0.624871           0.624871           5.373006
    2    1         3.700000       -46.5653           0.573622           0.573622           3.910002
    2    0         1.200000        -4.5995           0.334980           2.228188           5.505995
    3    2         7.000000       -74.0753           0.680699           0.680699           3.769201
 
 
  C                    hydrogenic:
 
  List of hydrogenic basis orbitals: 
    n    l      effective z      eigenvalue [eV]  inner max. [A]     outer max. [A]     outer radius [A]   
    2    1         1.700000        -9.8152           1.245706           1.245706           5.401630
    3    2         6.000000       -54.4226           0.792453           0.792453           4.178599
    2    0         4.900000       -81.6681           0.082559           0.562749           3.353238
    4    3         9.800000       -81.6681           0.863254           0.863254           4.028125
    3    1         5.200000       -40.8774           0.305389           1.215618           4.898362
    3    0         4.300000       -27.9508           0.091041           1.610311           5.401630
    5    4        14.400000      -112.8510           0.917666           0.917666           3.883070
    3    2         6.200000       -58.1113           0.763917           0.763917           4.077671
 

  Adding cutoff potential to free-atom effective potential.
  Creating atomic-like basis functions for current effective potential.

  Species H                   :

  List of atomic basis orbitals and eigenvalues:
    n    l      energy [Ha]    energy [eV]    outer radius [A]
    1    0        -0.238386        -6.4868       5.373006


  Species C                   :

  List of atomic basis orbitals and eigenvalues:
    n    l      energy [Ha]    energy [eV]    outer radius [A]
    1    0       -10.049212      -273.4530       1.934409
    2    0        -0.504761       -13.7352       5.271162
    2    1        -0.193631        -5.2690       5.401630

  Assembling full basis from fixed parts.
  | Species H :   atomic orbital   1 s accepted.
  | Species H :    hydro orbital   2 s accepted.
  | Species H :    hydro orbital   1 s accepted.
  | Species H :    hydro orbital   2 s accepted.
  | Species H :    hydro orbital   2 p accepted.
  | Species H :    hydro orbital   2 p accepted.
  | Species H :    hydro orbital   3 d accepted.
  | Species C :   atomic orbital   1 s accepted.
  | Species C :    hydro orbital   2 s accepted.
  | Species C :   atomic orbital   2 s accepted.
  | Species C :    hydro orbital   3 s accepted.
  | Species C :    hydro orbital   3 p accepted.
  | Species C :   atomic orbital   2 p accepted.
  | Species C :    hydro orbital   2 p accepted.
  | Species C :    hydro orbital   3 d accepted.
  | Species C :    hydro orbital   3 d accepted.
  | Species C :    hydro orbital   4 f accepted.
  | Species C :    hydro orbital   5 g accepted.
 
  Basis size parameters after reduction:
  | Total number of radial functions:       18
  | Total number of basis functions :     1284
 
  Per-task memory consumption for arrays in subroutine allocate_ext:
  |           4.443656MB.
  Testing on-site integration grid accuracy.
  |  Species  Function  <phi|h_atom|phi> (log., in eV)  <phi|h_atom|phi> (rad., in eV)
           1        1                 -6.4870767962                 -6.4871688290
           1        2                 13.5032046589                 13.5028982997
           1        3                 32.8195184817                 32.8119941656
           1        4                 33.8513856511                 33.7670005767 ***
           1        5                 28.8544614965                 28.8544615203
           1        6                 59.6326952547                 59.6327656460
           1        7                 60.2719308513                 60.2719305949
           2        8               -273.4529726040               -273.4529710464
           2        9                -10.7721037319                -10.7721022101
           2       10                 17.6044132601                 17.6044162063
           2       11                 53.7706460658                 53.7706913770
           2       12                 15.0973290362                 15.0973256030
           2       13                  3.8545134692                  3.8545724687
           2       14                 12.1156992592                 12.1182024431
           2       15                 29.4352039302                 29.4352041816
           2       16                 54.8741144708                 54.8740268729
           2       17                 59.3556032049                 59.3556031382
           2       18                 93.4551837154                 93.4551838009
 * Note: Onsite integrals marked "***" above are less accurate than
 * onsite_accuracy_threshold =    0.03000 eV. Usually, this is harmless.
 * When in doubt, tighten the "radial" and/or "radial_multiplier" flags to check.

  Preparing densities etc. for the partition functions (integrals / Hartree potential).

  Preparations completed.
  max(cpu_time)          :      0.190 s.
  Wall clock time (cpu1) :      0.196 s.
------------------------------------------------------------

------------------------------------------------------------
          Begin self-consistency loop: Initialization.

          Date     :  20210620, Time     :  160907.568
------------------------------------------------------------

  Initializing index lists of integration centers etc. from given atomic structure:
  | Number of centers in hartree potential         :        44
  | Number of centers in hartree multipole         :        44
  | Number of centers in electron density summation:        44
  | Number of centers in basis integrals           :        44
  | Number of centers in integrals                 :        44
  | Number of centers in hamiltonian               :        44
  * Using 56 tasks for Scalapack Eigenvalue solver.
  Detailed listing of tasks and assigned k-points:
  (for non-periodic systems, the "k-point" denotes an internal label only)
   Task     0 k-point     1 on d030
   Task     1 k-point     1 on d030
   Task     2 k-point     1 on d030
   Task     3 k-point     1 on d030
   Task     4 k-point     1 on d030
   Task     5 k-point     1 on d030
   Task     6 k-point     1 on d030
   Task     7 k-point     1 on d030
   Task     8 k-point     1 on d030
   Task     9 k-point     1 on d030
   Task    10 k-point     1 on d030
   Task    11 k-point     1 on d030
   Task    12 k-point     1 on d030
   Task    13 k-point     1 on d030
   Task    14 k-point     1 on d030
   Task    15 k-point     1 on d030
   Task    16 k-point     1 on d030
   Task    17 k-point     1 on d030
   Task    18 k-point     1 on d030
   Task    19 k-point     1 on d030
   Task    20 k-point     1 on d030
   Task    21 k-point     1 on d030
   Task    22 k-point     1 on d030
   Task    23 k-point     1 on d030
   Task    24 k-point     1 on d030
   Task    25 k-point     1 on d030
   Task    26 k-point     1 on d030
   Task    27 k-point     1 on d030
   Task    28 k-point     1 on d030
   Task    29 k-point     1 on d030
   Task    30 k-point     1 on d030
   Task    31 k-point     1 on d030
   Task    32 k-point     1 on d030
   Task    33 k-point     1 on d030
   Task    34 k-point     1 on d030
   Task    35 k-point     1 on d030
   Task    36 k-point     1 on d030
   Task    37 k-point     1 on d030
   Task    38 k-point     1 on d030
   Task    39 k-point     1 on d030
   Task    40 k-point     1 on d030
   Task    41 k-point     1 on d030
   Task    42 k-point     1 on d030
   Task    43 k-point     1 on d030
   Task    44 k-point     1 on d030
   Task    45 k-point     1 on d030
   Task    46 k-point     1 on d030
   Task    47 k-point     1 on d030
   Task    48 k-point     1 on d030
   Task    49 k-point     1 on d030
   Task    50 k-point     1 on d030
   Task    51 k-point     1 on d030
   Task    52 k-point     1 on d030
   Task    53 k-point     1 on d030
   Task    54 k-point     1 on d030
   Task    55 k-point     1 on d030
  Tasks:    56 split into      8 X      7 BLACS grid
  Calculating block size based on n_basis =         1284 max_nprow =            8 max_npcol =            7
  ScaLAPACK block size set to:           16
  Allocating        0.252 MB for ovlp
  Allocating        0.252 MB for ham
  Allocating        0.252 MB for eigenvec
  Required Scalapack workspace - INTEGER:            1 REAL:             1
  Partitioning the integration grid into batches with parallel hashing+maxmin method.
  | Number of batches:     6236
  | Maximal batch size:     200
  | Minimal batch size:       2
  | Average batch size:     117.083
  | Standard deviation of batch sizes:      41.187

  Integration load balanced across     56 MPI tasks.
  Work distribution over tasks is as follows:
  Task      0 has      13194 integration points.
  Task      1 has      13049 integration points.
  Task      2 has      12917 integration points.
  Task      3 has      13105 integration points.
  Task      4 has      13065 integration points.
  Task      5 has      13051 integration points.
  Task      6 has      12971 integration points.
  Task      7 has      13100 integration points.
  Task      8 has      13095 integration points.
  Task      9 has      12983 integration points.
  Task     10 has      13076 integration points.
  Task     11 has      13006 integration points.
  Task     12 has      13048 integration points.
  Task     13 has      12977 integration points.
  Task     14 has      13159 integration points.
  Task     15 has      13107 integration points.
  Task     16 has      12952 integration points.
  Task     17 has      13025 integration points.
  Task     18 has      12984 integration points.
  Task     19 has      13057 integration points.
  Task     20 has      12947 integration points.
  Task     21 has      13133 integration points.
  Task     22 has      13031 integration points.
  Task     23 has      12978 integration points.
  Task     24 has      13145 integration points.
  Task     25 has      12943 integration points.
  Task     26 has      13130 integration points.
  Task     27 has      12861 integration points.
  Task     28 has      13202 integration points.
  Task     29 has      13051 integration points.
  Task     30 has      12958 integration points.
  Task     31 has      13149 integration points.
  Task     32 has      12954 integration points.
  Task     33 has      13071 integration points.
  Task     34 has      12975 integration points.
  Task     35 has      13102 integration points.
  Task     36 has      13028 integration points.
  Task     37 has      12968 integration points.
  Task     38 has      13092 integration points.
  Task     39 has      13048 integration points.
  Task     40 has      13008 integration points.
  Task     41 has      12978 integration points.
  Task     42 has      13143 integration points.
  Task     43 has      13112 integration points.
  Task     44 has      12921 integration points.
  Task     45 has      13129 integration points.
  Task     46 has      13100 integration points.
  Task     47 has      12984 integration points.
  Task     48 has      12916 integration points.
  Task     49 has      13148 integration points.
  Task     50 has      13042 integration points.
  Task     51 has      12976 integration points.
  Task     52 has      13055 integration points.
  Task     53 has      12946 integration points.
  Task     54 has      13016 integration points.
  Task     55 has      12967 integration points.
  Initializing partition tables, free-atom densities, potentials, etc. across the integration grid (initialize_grid_storage).
  | initialize_grid_storage: Actual outermost partition radius vs. multipole_radius_free
  | (-- VB: in principle, multipole_radius_free should be larger, hence this output)
  | Species        1: Confinement radius =              6.000000000000000 AA, multipole_radius_free =              6.071692442739658 AA.
  | Species        1: outer_partition_radius set to              6.071692442739658 AA .
  | Species        2: Confinement radius =              6.000000000000000 AA, multipole_radius_free =              6.029870734432609 AA.
  | Species        2: outer_partition_radius set to              6.029870734432609 AA .
  | The sparse table of interatomic distances needs     22.8840 kbyte instead of    15.4880 kbyte of memory.
  | Using the partition_type stratmann_smoother will reduce your memory usage.
  | Net number of integration points:   730128
  | of which are non-zero points    :   577899
  Renormalizing the initial density to the exact electron count on the 3D integration grid.
  | Initial density: Formal number of electrons (from input files) :     174.0000000000
  | Integrated number of electrons on 3D grid     :     173.9998938302
  | Charge integration error                      :      -0.0001061698
  | Normalization factor for density and gradient :       1.0000006102
  Obtaining max. number of non-zero basis functions in each batch (get_n_compute_maxes).
  | Maximal number of non-zero basis functions:     1100
  Selecting the method for density update.
  Loop over occupied states selected for charge density update.
  Hamiltonian matrix size:
  | Size of matrix non-packed:                824970
  | Size of matrix packed:          806150
  Allocating        1.972 MB for KS_eigenvector
  use_local_index: Max. local matrix size =       750263
  Task:     0 matrix size:     126252
  Task:     1 matrix size:     173750
  Task:     2 matrix size:     261703
  Task:     3 matrix size:     324281
  Task:     4 matrix size:     480338
  Task:     5 matrix size:     635420
  Task:     6 matrix size:     750263
  Task:     7 matrix size:     380879
  Task:     8 matrix size:     511938
  Task:     9 matrix size:     423844
  Task:    10 matrix size:     560834
  Task:    11 matrix size:     748534
  Task:    12 matrix size:     580839
  Task:    13 matrix size:     670253
  Task:    14 matrix size:     380479
  Task:    15 matrix size:     206340
  Task:    16 matrix size:     188805
  Task:    17 matrix size:     508826
  Task:    18 matrix size:     574848
  Task:    19 matrix size:     643216
  Task:    20 matrix size:     397620
  Task:    21 matrix size:     217470
  Task:    22 matrix size:     166753
  Task:    23 matrix size:     139128
  Task:    24 matrix size:     567935
  Task:    25 matrix size:     468345
  Task:    26 matrix size:     463103
  Task:    27 matrix size:     383550
  Task:    28 matrix size:     516034
  Task:    29 matrix size:     389727
  Task:    30 matrix size:     649139
  Task:    31 matrix size:     526177
  Task:    32 matrix size:     531271
  Task:    33 matrix size:     312399
  Task:    34 matrix size:     292230
  Task:    35 matrix size:     383655
  Task:    36 matrix size:     568327
  Task:    37 matrix size:     435546
  Task:    38 matrix size:     201930
  Task:    39 matrix size:     184528
  Task:    40 matrix size:     303031
  Task:    41 matrix size:     199396
  Task:    42 matrix size:     737282
  Task:    43 matrix size:     472895
  Task:    44 matrix size:     523269
  Task:    45 matrix size:     384944
  Task:    46 matrix size:     214810
  Task:    47 matrix size:     222111
  Task:    48 matrix size:     170816
  Task:    49 matrix size:     739630
  Task:    50 matrix size:     737962
  Task:    51 matrix size:     598420
  Task:    52 matrix size:     617376
  Task:    53 matrix size:     510577
  Task:    54 matrix size:     560243
  Task:    55 matrix size:     359726
  Integrating Hamiltonian matrix: batch-based integration.
  Time summed over all CPUs for integration: real work      138.565 s, elapsed      286.917 s
  Time get_set_sparse_local_matrix_scalapack:     0.015172 s
  Start compute_balanced_batch_distribution
  Done load balancing, time needed:      0.007 s
  Integrating overlap matrix with loadbalancing
  Time summed over all CPUs for integration: real work       39.796 s, elapsed       46.401 s
  Time get_set_full_local_matrix_scalapack:     0.016964 s

  Updating Kohn-Sham eigenvalues and eigenvectors using ELSI and the ELPA eigensolver.
  Overlap matrix is not singular
  | Lowest and highest eigenvalues :  0.14E+02,  0.92E-04
  Finished singularity check of overlap matrix
  | Time :     0.069 s
  Finished Cholesky decomposition
  | Time :     0.016 s
  Finished transformation to standard eigenproblem
  | Time :     0.011 s
  Starting ELPA eigensolver
  Finished solving standard eigenproblem
  | Time :     0.072 s
  Finished back-transformation of eigenvectors
  | Time :     0.003 s

  Obtaining occupation numbers and chemical potential using ELSI.
  | Chemical potential (Fermi level):    -8.23902089 eV
  Writing Kohn-Sham eigenvalues.

  State    Occupation    Eigenvalue [Ha]    Eigenvalue [eV]
      1       2.00000         -10.174806         -276.87055
      2       2.00000         -10.174211         -276.85437
      3       2.00000         -10.173743         -276.84164
      4       2.00000         -10.173269         -276.82872
      5       2.00000         -10.173060         -276.82306
      6       2.00000         -10.172859         -276.81757
      7       2.00000         -10.172846         -276.81721
      8       2.00000         -10.172530         -276.80863
      9       2.00000         -10.172367         -276.80418
     10       2.00000         -10.171765         -276.78782
     11       2.00000         -10.171564         -276.78233
     12       2.00000         -10.171409         -276.77811
     13       2.00000         -10.171387         -276.77754
     14       2.00000         -10.170840         -276.76265
     15       2.00000         -10.170758         -276.76041
     16       2.00000         -10.170305         -276.74807
     17       2.00000         -10.169729         -276.73241
     18       2.00000         -10.169034         -276.71350
     19       2.00000         -10.168329         -276.69432
     20       2.00000         -10.168195         -276.69065
     21       2.00000         -10.167422         -276.66962
     22       2.00000         -10.166167         -276.63548
     23       2.00000         -10.164810         -276.59856
     24       2.00000         -10.164751         -276.59694
     25       2.00000         -10.164622         -276.59345
     26       2.00000         -10.164433         -276.58828
     27       2.00000          -1.030547          -28.04260
     28       2.00000          -1.021192          -27.78804
     29       2.00000          -0.990896          -26.96366
     30       2.00000          -0.990056          -26.94079
     31       2.00000          -0.952355          -25.91491
     32       2.00000          -0.937351          -25.50661
     33       2.00000          -0.908648          -24.72556
     34       2.00000          -0.896522          -24.39559
     35       2.00000          -0.886604          -24.12572
     36       2.00000          -0.883943          -24.05332
     37       2.00000          -0.862525          -23.47051
     38       2.00000          -0.861835          -23.45172
     39       2.00000          -0.852632          -23.20131
     40       2.00000          -0.804452          -21.89024
     41       2.00000          -0.785088          -21.36332
     42       2.00000          -0.776322          -21.12479
     43       2.00000          -0.740586          -20.15238
     44       2.00000          -0.734418          -19.98454
     45       2.00000          -0.730955          -19.89029
     46       2.00000          -0.725654          -19.74606
     47       2.00000          -0.723413          -19.68507
     48       2.00000          -0.708694          -19.28455
     49       2.00000          -0.667311          -18.15846
     50       2.00000          -0.656558          -17.86585
     51       2.00000          -0.643444          -17.50901
     52       2.00000          -0.642411          -17.48089
     53       2.00000          -0.639726          -17.40784
     54       2.00000          -0.635344          -17.28859
     55       2.00000          -0.607340          -16.52657
     56       2.00000          -0.606860          -16.51349
     57       2.00000          -0.595527          -16.20511
     58       2.00000          -0.587895          -15.99743
     59       2.00000          -0.587369          -15.98313
     60       2.00000          -0.578563          -15.74349
     61       2.00000          -0.572714          -15.58435
     62       2.00000          -0.572098          -15.56759
     63       2.00000          -0.571458          -15.55017
     64       2.00000          -0.571127          -15.54115
     65       2.00000          -0.563708          -15.33926
     66       2.00000          -0.547587          -14.90060
     67       2.00000          -0.542381          -14.75894
     68       2.00000          -0.523427          -14.24318
     69       2.00000          -0.516110          -14.04408
     70       2.00000          -0.514948          -14.01244
     71       2.00000          -0.509713          -13.86999
     72       2.00000          -0.505499          -13.75532
     73       2.00000          -0.504510          -13.72842
     74       2.00000          -0.498017          -13.55174
     75       2.00000          -0.497193          -13.52930
     76       2.00000          -0.496221          -13.50285
     77       2.00000          -0.490752          -13.35403
     78       2.00000          -0.484293          -13.17827
     79       2.00000          -0.480161          -13.06584
     80       2.00000          -0.434551          -11.82475
     81       2.00000          -0.430266          -11.70814
     82       2.00000          -0.403686          -10.98485
     83       2.00000          -0.403359          -10.97596
     84       2.00000          -0.401086          -10.91411
     85       2.00000          -0.395403          -10.75947
     86       2.00000          -0.376473          -10.24434
     87       2.00000          -0.375268          -10.21157
     88       0.00000          -0.237586           -6.46505
     89       0.00000          -0.234208           -6.37313
     90       0.00000          -0.225465           -6.13522
     91       0.00000          -0.209996           -5.71429
     92       0.00000          -0.203076           -5.52597
     93       0.00000          -0.200881           -5.46626
     94       0.00000          -0.175503           -4.77567
     95       0.00000          -0.172376           -4.69060
     96       0.00000          -0.093300           -2.53883
     97       0.00000          -0.084898           -2.31020
     98       0.00000          -0.078129           -2.12599
     99       0.00000          -0.074126           -2.01707
    100       0.00000          -0.066288           -1.80378
    101       0.00000          -0.062425           -1.69868
    102       0.00000          -0.051695           -1.40668
    103       0.00000          -0.050837           -1.38334
    104       0.00000          -0.041837           -1.13844
    105       0.00000          -0.040457           -1.10090
    106       0.00000          -0.035429           -0.96408
    107       0.00000          -0.030087           -0.81870
    108       0.00000          -0.027919           -0.75973
    109       0.00000          -0.027769           -0.75563
    110       0.00000          -0.024888           -0.67723
    111       0.00000          -0.022685           -0.61730
    112       0.00000          -0.019812           -0.53910
    113       0.00000          -0.017744           -0.48283
    114       0.00000          -0.006518           -0.17737
    115       0.00000           0.000037            0.00101
    116       0.00000           0.001942            0.05284
    117       0.00000           0.005715            0.15551
    118       0.00000           0.013108            0.35670
    119       0.00000           0.014504            0.39467
    120       0.00000           0.026673            0.72580
    121       0.00000           0.029822            0.81151
    122       0.00000           0.030858            0.83969
    123       0.00000           0.035326            0.96127
    124       0.00000           0.035497            0.96591
    125       0.00000           0.043207            1.17574
    126       0.00000           0.046508            1.26555
    127       0.00000           0.048063            1.30786
    128       0.00000           0.051052            1.38921
    129       0.00000           0.051523            1.40202
    130       0.00000           0.052007            1.41517
    131       0.00000           0.060707            1.65191
    132       0.00000           0.063510            1.72819
    133       0.00000           0.067040            1.82425
    134       0.00000           0.075410            2.05200
    135       0.00000           0.075784            2.06218
    136       0.00000           0.076810            2.09011
    137       0.00000           0.078742            2.14269
    138       0.00000           0.080149            2.18097
    139       0.00000           0.084250            2.29256
    140       0.00000           0.088917            2.41955
    141       0.00000           0.091651            2.49396
    142       0.00000           0.092464            2.51608
    143       0.00000           0.096352            2.62187
    144       0.00000           0.099962            2.72012
    145       0.00000           0.103647            2.82038
    146       0.00000           0.105324            2.86602
    147       0.00000           0.107513            2.92559
    148       0.00000           0.109884            2.99010
    149       0.00000           0.113454            3.08724
    150       0.00000           0.115817            3.15153
    151       0.00000           0.116550            3.17149
    152       0.00000           0.125838            3.42422
    153       0.00000           0.128796            3.50473
    154       0.00000           0.129891            3.53453
    155       0.00000           0.132583            3.60776
    156       0.00000           0.136567            3.71619
    157       0.00000           0.140678            3.82804
    158       0.00000           0.147691            4.01889
    159       0.00000           0.148120            4.03055
    160       0.00000           0.153028            4.16410
    161       0.00000           0.155767            4.23862
    162       0.00000           0.157635            4.28947
    163       0.00000           0.159994            4.35365
    164       0.00000           0.165291            4.49780
    165       0.00000           0.165322            4.49865
    166       0.00000           0.172551            4.69535
    167       0.00000           0.174143            4.73868
    168       0.00000           0.178043            4.84479
    169       0.00000           0.179480            4.88391
    170       0.00000           0.181641            4.94271
    171       0.00000           0.183109            4.98264
    172       0.00000           0.186255            5.06825
    173       0.00000           0.189812            5.16506
    174       0.00000           0.192065            5.22636
    175       0.00000           0.192924            5.24974
    176       0.00000           0.195416            5.31754
    177       0.00000           0.197219            5.36661
    178       0.00000           0.204465            5.56377
    179       0.00000           0.216388            5.88821
    180       0.00000           0.220651            6.00423
    181       0.00000           0.221409            6.02484
    182       0.00000           0.223770            6.08908
    183       0.00000           0.229814            6.25357
    184       0.00000           0.232622            6.32998
    185       0.00000           0.238507            6.49011
    186       0.00000           0.240345            6.54011
    187       0.00000           0.241245            6.56461
    188       0.00000           0.247701            6.74029
    189       0.00000           0.257019            6.99383
    190       0.00000           0.258795            7.04217
    191       0.00000           0.262544            7.14419
    192       0.00000           0.268331            7.30165

  Highest occupied state (VBM) at    -10.21156654 eV
  | Occupation number:      2.00000000

  Lowest unoccupied state (CBM) at    -6.46504756 eV
  | Occupation number:      0.00000000

  Overall HOMO-LUMO gap:      3.74651899 eV.
  Calculating total energy contributions from superposition of free atom densities.

  Total energy components:
  | Sum of eigenvalues            :        -607.72050763 Ha      -16536.91640162 eV
  | XC energy correction          :        -144.11682918 Ha       -3921.61845186 eV
  | XC potential correction       :         185.12505124 Ha        5037.50894987 eV
  | Free-atom electrostatic energy:        -435.76600281 Ha      -11857.79625449 eV
  | Hartree energy correction     :           0.00000000 Ha           0.00000000 eV
  | Entropy correction            :           0.00000000 Ha           0.00000000 eV
  | ---------------------------
  | Total energy                  :       -1002.47828838 Ha      -27278.82215810 eV
  | Total energy, T -> 0          :       -1002.47828838 Ha      -27278.82215810 eV  <-- do not rely on this value for anything but (periodic) metals
  | Electronic free energy        :       -1002.47828838 Ha      -27278.82215810 eV

  Derived energy quantities:
  | Kinetic energy                :         992.71985686 Ha       27013.28172573 eV
  | Electrostatic energy          :       -1851.08131606 Ha      -50370.48543198 eV
  | Energy correction for multipole
  | error in Hartree potential    :           0.00000000 Ha           0.00000000 eV
  | Sum of eigenvalues per atom                           :        -375.83900913 eV
  | Total energy (T->0) per atom                          :        -619.97323087 eV  <-- do not rely on this value for anything but (periodic) metals
  | Electronic free energy per atom                       :        -619.97323087 eV
  Initialize hartree_potential_storage
  Max. number of atoms included in rho_multipole:           44

  End scf initialization - timings             :  max(cpu_time)    wall_clock(cpu1)
  | Time for scf. initialization               :        7.649 s           7.711 s
  | Boundary condition initialization          :        0.000 s           0.003 s
  | Integration                                :        6.009 s           6.013 s
  | Solution of K.-S. eqns.                    :        0.183 s           0.200 s
  | Grid partitioning                          :        0.603 s           0.607 s
  | Preloading free-atom quantities on grid    :        0.013 s           0.017 s
  | Free-atom superposition energy             :        0.062 s           0.063 s
  | Total energy evaluation                    :        0.001 s           0.003 s

  Partial memory accounting:
  | Current value for overall tracked memory usage on task 0  :           3.234 MB
  | Peak value for overall tracked memory usage on task 0     :          29.790 MB after allocating zora_vector2
  | Largest tracked array allocation on task 0 so far         :           9.680 MB  when allocating hamiltonian_shell
  Note:  These values currently only include a subset of arrays which are explicitly tracked.
  The "true" memory usage will be greater.
------------------------------------------------------------

------------------------------------------------------------
          Begin self-consistency iteration #    1

  Date     :  20210620, Time     :  160915.281
------------------------------------------------------------
  Evaluating new KS density.
  Integration grid: deviation in total charge (<rho> - N_e) =   2.842171E-14
  Pulay mixing of updated and previous charge densities.

  Evaluating partitioned Hartree potential by multipole expansion.
  | Analytical far-field extrapolation by fixed multipoles:
  | Hartree multipole sum: apparent total charge =  -0.114771E-03
  Summing up the Hartree potential with load balancing.
  Time summed over all CPUs for potential: real work       21.304 s, elapsed       39.420 s
  | RMS charge density error from multipole expansion :   0.127471E-01

  Start compute_balanced_batch_distribution
  Done load balancing, time needed:      0.006 s
  Integrating Hamiltonian matrix: batch-based integration with load balancing
  Time summed over all CPUs for integration: real work      154.394 s, elapsed      177.516 s
  Time get_set_full_local_matrix_scalapack:     0.016737 s
  Start compute_balanced_batch_distribution
  Done load balancing, time needed:      0.006 s

  Updating Kohn-Sham eigenvalues and eigenvectors using ELSI and the ELPA eigensolver.
  Finished transformation to standard eigenproblem
  | Time :     0.011 s
  Starting ELPA eigensolver
  Finished solving standard eigenproblem
  | Time :     0.069 s
  Finished back-transformation of eigenvectors
  | Time :     0.004 s

  Obtaining occupation numbers and chemical potential using ELSI.
  | Chemical potential (Fermi level):    -3.80813154 eV
  Writing Kohn-Sham eigenvalues.

  State    Occupation    Eigenvalue [Ha]    Eigenvalue [eV]
      1       2.00000          -9.973055         -271.38064
      2       2.00000          -9.972693         -271.37079
      3       2.00000          -9.962338         -271.08900
      4       2.00000          -9.961738         -271.07268
      5       2.00000          -9.960840         -271.04824
      6       2.00000          -9.958775         -270.99207
      7       2.00000          -9.956136         -270.92024
      8       2.00000          -9.955742         -270.90954
      9       2.00000          -9.955034         -270.89027
     10       2.00000          -9.954396         -270.87290
     11       2.00000          -9.951217         -270.78638
     12       2.00000          -9.948857         -270.72217
     13       2.00000          -9.947875         -270.69545
     14       2.00000          -9.946739         -270.66455
     15       2.00000          -9.943007         -270.56298
     16       2.00000          -9.942930         -270.56089
     17       2.00000          -9.942072         -270.53754
     18       2.00000          -9.940441         -270.49316
     19       2.00000          -9.940185         -270.48620
     20       2.00000          -9.939790         -270.47545
     21       2.00000          -9.937260         -270.40660
     22       2.00000          -9.935641         -270.36255
     23       2.00000          -9.935406         -270.35614
     24       2.00000          -9.933926         -270.31589
     25       2.00000          -9.933471         -270.30351
     26       2.00000          -9.932436         -270.27534
     27       2.00000          -0.873413          -23.76676
     28       2.00000          -0.859402          -23.38551
     29       2.00000          -0.824077          -22.42429
     30       2.00000          -0.823155          -22.39920
     31       2.00000          -0.796388          -21.67082
     32       2.00000          -0.775671          -21.10709
     33       2.00000          -0.756079          -20.57396
     34       2.00000          -0.743935          -20.24349
     35       2.00000          -0.729278          -19.84467
     36       2.00000          -0.726571          -19.77101
     37       2.00000          -0.702707          -19.12164
     38       2.00000          -0.701489          -19.08849
     39       2.00000          -0.701298          -19.08328
     40       2.00000          -0.654789          -17.81771
     41       2.00000          -0.633426          -17.23641
     42       2.00000          -0.625539          -17.02178
     43       2.00000          -0.592851          -16.13230
     44       2.00000          -0.586390          -15.95650
     45       2.00000          -0.582484          -15.85018
     46       2.00000          -0.577866          -15.72455
     47       2.00000          -0.574678          -15.63778
     48       2.00000          -0.566753          -15.42214
     49       2.00000          -0.527815          -14.36258
     50       2.00000          -0.519369          -14.13275
     51       2.00000          -0.501905          -13.65752
     52       2.00000          -0.500280          -13.61332
     53       2.00000          -0.487634          -13.26920
     54       2.00000          -0.483688          -13.16182
     55       2.00000          -0.468590          -12.75099
     56       2.00000          -0.462122          -12.57499
     57       2.00000          -0.460675          -12.53562
     58       2.00000          -0.449414          -12.22917
     59       2.00000          -0.449163          -12.22236
     60       2.00000          -0.446178          -12.14113
     61       2.00000          -0.438215          -11.92445
     62       2.00000          -0.431499          -11.74168
     63       2.00000          -0.429299          -11.68183
     64       2.00000          -0.424652          -11.55537
     65       2.00000          -0.417627          -11.36420
     66       2.00000          -0.408648          -11.11989
     67       2.00000          -0.405757          -11.04122
     68       2.00000          -0.390297          -10.62053
     69       2.00000          -0.379460          -10.32564
     70       2.00000          -0.373267          -10.15710
     71       2.00000          -0.368363          -10.02366
     72       2.00000          -0.363690           -9.89651
     73       2.00000          -0.362273           -9.85795
     74       2.00000          -0.360947           -9.82187
     75       2.00000          -0.359868           -9.79252
     76       2.00000          -0.354366           -9.64279
     77       2.00000          -0.346074           -9.41715
     78       2.00000          -0.340193           -9.25713
     79       2.00000          -0.340064           -9.25360
     80       2.00000          -0.300915           -8.18831
     81       2.00000          -0.295878           -8.05126
     82       2.00000          -0.272846           -7.42451
     83       2.00000          -0.271033           -7.37519
     84       2.00000          -0.263932           -7.18196
     85       2.00000          -0.260733           -7.09490
     86       2.00000          -0.239923           -6.52864
     87       2.00000          -0.238141           -6.48014
     88       0.00000          -0.106977           -2.91100
     89       0.00000          -0.102462           -2.78812
     90       0.00000          -0.098545           -2.68155
     91       0.00000          -0.083376           -2.26877
     92       0.00000          -0.072333           -1.96827
     93       0.00000          -0.066961           -1.82210
     94       0.00000          -0.044057           -1.19885
     95       0.00000          -0.038574           -1.04966
     96       0.00000          -0.029459           -0.80162
     97       0.00000          -0.024066           -0.65487
     98       0.00000          -0.018414           -0.50108
     99       0.00000          -0.014662           -0.39899
    100       0.00000          -0.008802           -0.23952
    101       0.00000          -0.001857           -0.05054
    102       0.00000           0.003152            0.08576
    103       0.00000           0.008675            0.23606
    104       0.00000           0.017081            0.46481
    105       0.00000           0.017443            0.47466
    106       0.00000           0.024909            0.67781
    107       0.00000           0.025219            0.68625
    108       0.00000           0.035824            0.97482
    109       0.00000           0.037634            1.02407
    110       0.00000           0.040420            1.09988
    111       0.00000           0.053996            1.46931
    112       0.00000           0.054391            1.48006
    113       0.00000           0.061552            1.67492
    114       0.00000           0.070168            1.90938
    115       0.00000           0.074285            2.02141
    116       0.00000           0.075958            2.06693
    117       0.00000           0.081988            2.23102
    118       0.00000           0.088669            2.41282
    119       0.00000           0.094920            2.58290
    120       0.00000           0.097005            2.63964
    121       0.00000           0.098077            2.66880
    122       0.00000           0.101238            2.75483
    123       0.00000           0.103411            2.81395
    124       0.00000           0.106854            2.90764
    125       0.00000           0.109395            2.97679
    126       0.00000           0.116794            3.17812
    127       0.00000           0.125075            3.40346
    128       0.00000           0.126227            3.43482
    129       0.00000           0.129409            3.52140
    130       0.00000           0.134477            3.65929
    131       0.00000           0.135533            3.68803
    132       0.00000           0.139065            3.78415
    133       0.00000           0.142123            3.86736
    134       0.00000           0.143181            3.89616
    135       0.00000           0.143844            3.91420
    136       0.00000           0.147365            4.01001
    137       0.00000           0.148522            4.04148
    138       0.00000           0.152686            4.15481
    139       0.00000           0.158290            4.30729
    140       0.00000           0.159990            4.35354
    141       0.00000           0.163447            4.44761
    142       0.00000           0.168088            4.57389
    143       0.00000           0.168894            4.59584
    144       0.00000           0.172546            4.69520
    145       0.00000           0.175172            4.76667
    146       0.00000           0.177866            4.83999
    147       0.00000           0.184459            5.01939
    148       0.00000           0.188276            5.12326
    149       0.00000           0.189260            5.15002
    150       0.00000           0.191350            5.20690
    151       0.00000           0.199062            5.41676
    152       0.00000           0.199706            5.43428
    153       0.00000           0.202017            5.49715
    154       0.00000           0.206287            5.61336
    155       0.00000           0.210163            5.71881
    156       0.00000           0.211509            5.75546
    157       0.00000           0.212467            5.78152
    158       0.00000           0.215703            5.86957
    159       0.00000           0.217133            5.90850
    160       0.00000           0.218858            5.95543
    161       0.00000           0.221119            6.01694
    162       0.00000           0.226421            6.16124
    163       0.00000           0.226967            6.17609
    164       0.00000           0.232473            6.32592
    165       0.00000           0.240394            6.54146
    166       0.00000           0.245259            6.67382
    167       0.00000           0.247079            6.72337
    168       0.00000           0.251653            6.84782
    169       0.00000           0.252865            6.88081
    170       0.00000           0.256127            6.96956
    171       0.00000           0.264762            7.20454
    172       0.00000           0.266063            7.23994
    173       0.00000           0.273305            7.43700
    174       0.00000           0.274606            7.47242
    175       0.00000           0.279497            7.60551
    176       0.00000           0.280121            7.62247
    177       0.00000           0.287782            7.83094
    178       0.00000           0.290267            7.89856
    179       0.00000           0.295241            8.03391
    180       0.00000           0.296619            8.07142
    181       0.00000           0.301165            8.19512
    182       0.00000           0.304886            8.29637
    183       0.00000           0.311917            8.48770
    184       0.00000           0.317105            8.62886
    185       0.00000           0.319488            8.69372
    186       0.00000           0.324112            8.81955
    187       0.00000           0.325100            8.84642
    188       0.00000           0.329373            8.96269
    189       0.00000           0.334678            9.10705
    190       0.00000           0.341192            9.28431
    191       0.00000           0.342000            9.30629
    192       0.00000           0.343649            9.35117

  Highest occupied state (VBM) at     -6.48013901 eV
  | Occupation number:      2.00000000

  Lowest unoccupied state (CBM) at    -2.91100397 eV
  | Occupation number:      0.00000000

  Overall HOMO-LUMO gap:      3.56913503 eV.

  Total energy components:
  | Sum of eigenvalues            :        -578.53007555 Ha      -15742.60433053 eV
  | XC energy correction          :        -146.05093383 Ha       -3974.24811691 eV
  | XC potential correction       :         187.63497604 Ha        5105.80747867 eV
  | Free-atom electrostatic energy:        -435.76600281 Ha      -11857.79625449 eV
  | Hartree energy correction     :         -28.82202170 Ha        -784.28711455 eV
  | Entropy correction            :           0.00000000 Ha           0.00000000 eV
  | ---------------------------
  | Total energy                  :       -1001.53405784 Ha      -27253.12833781 eV
  | Total energy, T -> 0          :       -1001.53405784 Ha      -27253.12833781 eV  <-- do not rely on this value for anything but (periodic) metals
  | Electronic free energy        :       -1001.53405784 Ha      -27253.12833781 eV

  Derived energy quantities:
  | Kinetic energy                :        1001.45759125 Ha       27251.04757605 eV
  | Electrostatic energy          :       -1856.94071527 Ha      -50529.92779695 eV
  | Energy correction for multipole
  | error in Hartree potential    :          -0.06228928 Ha          -1.69497763 eV
  | Sum of eigenvalues per atom                           :        -357.78646206 eV
  | Total energy (T->0) per atom                          :        -619.38928040 eV  <-- do not rely on this value for anything but (periodic) metals
  | Electronic free energy per atom                       :        -619.38928040 eV

  Self-consistency convergence accuracy:
  | Change of charge density      :  0.1031E+01
  | Change of sum of eigenvalues  :  0.7943E+03 eV
  | Change of total energy        :  0.2569E+02 eV

  End self-consistency iteration #     1       :  max(cpu_time)    wall_clock(cpu1)
  | Time for this iteration                    :        5.204 s           5.211 s
  | Charge density update                      :        1.163 s           1.165 s
  | Density mixing                             :        0.002 s           0.004 s
  | Hartree multipole update                   :        0.009 s           0.010 s
  | Hartree multipole summation                :        0.713 s           0.715 s
  | Integration                                :        3.175 s           3.175 s
  | Solution of K.-S. eqns.                    :        0.126 s           0.126 s
  | Total energy evaluation                    :        0.000 s           0.000 s

  Partial memory accounting:
  | Current value for overall tracked memory usage on task 0  :           3.234 MB
  | Peak value for overall tracked memory usage on task 0     :          30.693 MB after allocating zora_vector2
  | Largest tracked array allocation on task 0 so far         :           9.680 MB  when allocating hamiltonian_shell
  Note:  These values currently only include a subset of arrays which are explicitly tracked.
  The "true" memory usage will be greater.
------------------------------------------------------------

------------------------------------------------------------
          Begin self-consistency iteration #    2

  Date     :  20210620, Time     :  160920.495
------------------------------------------------------------
  Evaluating new KS density.
  Integration grid: deviation in total charge (<rho> - N_e) =   1.136868E-13
  Pulay mixing of updated and previous charge densities.

  Evaluating partitioned Hartree potential by multipole expansion.
  | Analytical far-field extrapolation by fixed multipoles:
  | Hartree multipole sum: apparent total charge =  -0.114266E-03
  Summing up the Hartree potential with load balancing.
  Time summed over all CPUs for potential: real work       21.582 s, elapsed       25.039 s
  | RMS charge density error from multipole expansion :   0.222406E-01

  Integrating Hamiltonian matrix: batch-based integration with load balancing
  Time summed over all CPUs for integration: real work      156.790 s, elapsed      163.999 s
  Time get_set_full_local_matrix_scalapack:     0.023512 s

  Updating Kohn-Sham eigenvalues and eigenvectors using ELSI and the ELPA eigensolver.
  Finished transformation to standard eigenproblem
  | Time :     0.010 s
  Starting ELPA eigensolver
  Finished solving standard eigenproblem
  | Time :     0.069 s
[...]
     22       2.00000          -9.889769         -269.11432
     23       2.00000          -9.889606         -269.10987
     24       2.00000          -9.888873         -269.08993
     25       2.00000          -9.888313         -269.07468
     26       2.00000          -9.887727         -269.05874
     27       2.00000          -0.825992          -22.47639
     28       2.00000          -0.811871          -22.09215
     29       2.00000          -0.777039          -21.14432
     30       2.00000          -0.775776          -21.10994
     31       2.00000          -0.747137          -20.33062
     32       2.00000          -0.726448          -19.76766
     33       2.00000          -0.705029          -19.18481
     34       2.00000          -0.691368          -18.81307
     35       2.00000          -0.678114          -18.45243
     36       2.00000          -0.674487          -18.35371
     37       2.00000          -0.650798          -17.70912
     38       2.00000          -0.649700          -17.67925
     39       2.00000          -0.648125          -17.63639
     40       2.00000          -0.600884          -16.35090
     41       2.00000          -0.578542          -15.74292
     42       2.00000          -0.570464          -15.52311
     43       2.00000          -0.537673          -14.63081
     44       2.00000          -0.530998          -14.44920
     45       2.00000          -0.526475          -14.32611
     46       2.00000          -0.521767          -14.19800
     47       2.00000          -0.518708          -14.11476
     48       2.00000          -0.510776          -13.89893
     49       2.00000          -0.472110          -12.84676
     50       2.00000          -0.462237          -12.57811
     51       2.00000          -0.446545          -12.15112
     52       2.00000          -0.445540          -12.12376
     53       2.00000          -0.431670          -11.74634
     54       2.00000          -0.427536          -11.63384
     55       2.00000          -0.418590          -11.39042
     56       2.00000          -0.404561          -11.00867
     57       2.00000          -0.404249          -11.00018
     58       2.00000          -0.391960          -10.66578
     59       2.00000          -0.390031          -10.61328
     60       2.00000          -0.388618          -10.57484
     61       2.00000          -0.382310          -10.40319
     62       2.00000          -0.375392          -10.21494
     63       2.00000          -0.373945          -10.17556
     64       2.00000          -0.369797          -10.06269
     65       2.00000          -0.364010           -9.90522
     66       2.00000          -0.356482           -9.70036
     67       2.00000          -0.351318           -9.55986
     68       2.00000          -0.343091           -9.33597
     69       2.00000          -0.335966           -9.14209
     70       2.00000          -0.326338           -8.88011
     71       2.00000          -0.324777           -8.83763
     72       2.00000          -0.314803           -8.56622
     73       2.00000          -0.310870           -8.45921
     74       2.00000          -0.306100           -8.32939
     75       2.00000          -0.304564           -8.28760
     76       2.00000          -0.296484           -8.06774
     77       2.00000          -0.290078           -7.89343
     78       2.00000          -0.285268           -7.76254
     79       2.00000          -0.282811           -7.69568
     80       2.00000          -0.264475           -7.19672
     81       2.00000          -0.258899           -7.04499
     82       2.00000          -0.232390           -6.32367
     83       2.00000          -0.231985           -6.31262
     84       2.00000          -0.226968           -6.17611
     85       2.00000          -0.222244           -6.04758
     86       2.00000          -0.202820           -5.51901
     87       2.00000          -0.200707           -5.46152
     88       0.00000          -0.068596           -1.86660
     89       0.00000          -0.063434           -1.72613
     90       0.00000          -0.059621           -1.62237
     91       0.00000          -0.046463           -1.26434
     92       0.00000          -0.033529           -0.91236
     93       0.00000          -0.028408           -0.77301
     94       0.00000          -0.008814           -0.23985
     95       0.00000          -0.005758           -0.15668
     96       0.00000          -0.002546           -0.06928
     97       0.00000           0.000374            0.01017
     98       0.00000           0.003190            0.08680
     99       0.00000           0.006581            0.17907
    100       0.00000           0.013024            0.35440
    101       0.00000           0.018925            0.51497
    102       0.00000           0.023975            0.65239
    103       0.00000           0.029142            0.79300
    104       0.00000           0.036811            1.00169
    105       0.00000           0.037457            1.01926
    106       0.00000           0.045295            1.23253
    107       0.00000           0.046675            1.27009
    108       0.00000           0.058561            1.59351
    109       0.00000           0.060183            1.63766
    110       0.00000           0.074557            2.02880
    111       0.00000           0.075874            2.06465
    112       0.00000           0.081419            2.21553
    113       0.00000           0.090457            2.46147
    114       0.00000           0.092260            2.51053
    115       0.00000           0.097790            2.66100
    116       0.00000           0.098797            2.68841
    117       0.00000           0.109780            2.98725
    118       0.00000           0.111826            3.04294
    119       0.00000           0.119297            3.24625
    120       0.00000           0.121971            3.31900
    121       0.00000           0.128524            3.49731
    122       0.00000           0.133997            3.64624
    123       0.00000           0.136463            3.71336
    124       0.00000           0.140859            3.83297
    125       0.00000           0.144283            3.92615
    126       0.00000           0.145081            3.94786
    127       0.00000           0.151613            4.12560
    128       0.00000           0.155422            4.22924
    129       0.00000           0.155952            4.24367
    130       0.00000           0.163792            4.45700
    131       0.00000           0.164686            4.48134
    132       0.00000           0.167478            4.55730
    133       0.00000           0.169723            4.61840
    134       0.00000           0.170807            4.64790
    135       0.00000           0.171933            4.67854
    136       0.00000           0.174363            4.74465
    137       0.00000           0.178540            4.85831
    138       0.00000           0.184279            5.01447
    139       0.00000           0.186336            5.07045
    140       0.00000           0.191044            5.19858
    141       0.00000           0.194813            5.30112
    142       0.00000           0.196256            5.34040
    143       0.00000           0.198822            5.41022
    144       0.00000           0.205035            5.57927
    145       0.00000           0.206305            5.61385
    146       0.00000           0.208999            5.68716
    147       0.00000           0.212119            5.77207
    148       0.00000           0.217844            5.92784
    149       0.00000           0.219235            5.96569
    150       0.00000           0.220441            5.99851
    151       0.00000           0.226271            6.15715
    152       0.00000           0.229690            6.25018
    153       0.00000           0.232519            6.32717
    154       0.00000           0.237216            6.45496
    155       0.00000           0.241194            6.56322
    156       0.00000           0.243330            6.62135
    157       0.00000           0.243882            6.63638
    158       0.00000           0.247393            6.73191
    159       0.00000           0.248530            6.76286
    160       0.00000           0.249585            6.79156
    161       0.00000           0.251730            6.84993
    162       0.00000           0.257617            7.01012
    163       0.00000           0.259679            7.06622
    164       0.00000           0.261429            7.11385
    165       0.00000           0.268804            7.31454
    166       0.00000           0.272393            7.41220
    167       0.00000           0.275644            7.50066
    168       0.00000           0.279056            7.59350
    169       0.00000           0.284730            7.74790
    170       0.00000           0.291467            7.93123
    171       0.00000           0.295881            8.05134
    172       0.00000           0.297008            8.08201
    173       0.00000           0.300527            8.17776
    174       0.00000           0.302628            8.23494
    175       0.00000           0.304100            8.27499
    176       0.00000           0.310835            8.45825
    177       0.00000           0.318746            8.67351
    178       0.00000           0.320898            8.73209
    179       0.00000           0.326620            8.88778
    180       0.00000           0.329625            8.96955
    181       0.00000           0.335129            9.11932
    182       0.00000           0.340409            9.26300
    183       0.00000           0.344767            9.38159
    184       0.00000           0.347439            9.45428
    185       0.00000           0.349413            9.50801
    186       0.00000           0.356419            9.69865
    187       0.00000           0.357195            9.71977
    188       0.00000           0.359452            9.78120
    189       0.00000           0.363762            9.89847
    190       0.00000           0.370455           10.08060
    191       0.00000           0.374097           10.17970
    192       0.00000           0.377650           10.27638

  Highest occupied state (VBM) at     -5.46152447 eV
  | Occupation number:      2.00000000

  Lowest unoccupied state (CBM) at    -1.86659631 eV
  | Occupation number:      0.00000000

  Overall HOMO-LUMO gap:      3.59492816 eV.

  Total energy components:
  | Sum of eigenvalues            :        -569.52663512 Ha      -15497.60825126 eV
  | XC energy correction          :        -146.93300377 Ha       -3998.25046139 eV
  | XC potential correction       :         188.76120375 Ha        5136.45369397 eV
  | Free-atom electrostatic energy:        -435.76600281 Ha      -11857.79625449 eV
  | Hartree energy correction     :         -37.72481076 Ha       -1026.54433068 eV
  | Entropy correction            :           0.00000000 Ha           0.00000000 eV
  | ---------------------------
  | Total energy                  :       -1001.18924871 Ha      -27243.74560386 eV
  | Total energy, T -> 0          :       -1001.18924871 Ha      -27243.74560386 eV  <-- do not rely on this value for anything but (periodic) metals
  | Electronic free energy        :       -1001.18924871 Ha      -27243.74560386 eV

  Derived energy quantities:
  | Kinetic energy                :         998.76890778 Ha       27177.88477617 eV
  | Electrostatic energy          :       -1853.02515271 Ha      -50423.37991864 eV
  | Energy correction for multipole
  | error in Hartree potential    :          -0.11506386 Ha          -3.13104700 eV
  | Sum of eigenvalues per atom                           :        -352.21836935 eV
  | Total energy (T->0) per atom                          :        -619.17603645 eV  <-- do not rely on this value for anything but (periodic) metals
  | Electronic free energy per atom                       :        -619.17603645 eV
  End evaluation of scaled ZORA corrections.
  | Time for scaled ZORA corrections           :        5.856 s           5.870 s
------------------------------------------------------------

  Energy and forces in a compact form:
  | Total energy uncorrected      :         -0.272437456038586E+05 eV
  | Total energy corrected        :         -0.272437456038586E+05 eV  <-- do not rely on this value for anything but (periodic) metals
  | Electronic free energy        :         -0.272437456038586E+05 eV

  ------------------------------------ 
  Start decomposition of the XC Energy 
  ------------------------------------ 
  X and C from original XC functional choice 
  Hartree-Fock Energy :          0.000000000 Ha              0.000000000 eV
  X Energy            :       -141.104917317 Ha          -3839.660159965 eV
  C Energy            :         -5.828086455 Ha           -158.590301427 eV
  Total XC Energy     :       -146.933003772 Ha          -3998.250461393 eV
  ------------------------------------ 
  LDA X and C from self-consistent density 
  X Energy LDA        :       -127.807953065 Ha          -3477.831353023 eV
  C Energy LDA        :        -11.205971436 Ha           -304.929997440 eV
  ------------------------------------ 
  End decomposition of the XC Energy 
  ------------------------------------ 

------------------------------------------------------------

------------------------------------------------------------------------------
  Final output of selected total energy values:

  The following output summarizes some interesting total energy values
  at the end of a run (AFTER all relaxation, molecular dynamics, etc.).

  | Total energy of the DFT / Hartree-Fock s.c.f. calculation      :         -27243.745603859 eV
  | Final zero-broadening corrected energy (caution - metals only) :         -27243.745603859 eV
  | For reference only, the value of 1 Hartree used in FHI-aims is :             27.211384500 eV

  Before relying on these values, please be sure to understand exactly which
  total energy value is referred to by a given number. Different objects may
  all carry the same name 'total energy'. Definitions:

  Total energy of the DFT / Hartree-Fock s.c.f. calculation:
  | Note that this energy does not include ANY quantities calculated after the
  | s.c.f. cycle, in particular not ANY RPA, MP2, etc. many-body perturbation terms.
  | Scalar relativistic effects have been included in the 'scaled ZORA' approximation.

  Final zero-broadening corrected energy:
  | For metallic systems only, a broadening of the occupation numbers at the Fermi
  | level can be extrapolated back to zero broadening by an electron-gas inspired
  | formula. For all systems that are not real metals, this value can be
  | meaningless and should be avoided.

------------------------------------------------------------------------------
  Methods described in the following list of references were used in this FHI-aims run.
  If you publish the results, please make sure to cite these reference if they apply.
  FHI-aims is an academic code, and for our developers (often, Ph.D. students
  and postdocs), scientific credit in the community is essential.
  Thank you for helping us!

  For any use of FHI-aims, please cite:

    Volker Blum, Ralf Gehrke, Felix Hanke, Paula Havu, Ville Havu,
    Xinguo Ren, Karsten Reuter, and Matthias Scheffler
    'Ab initio molecular simulations with numeric atom-centered orbitals'
    Computer Physics Communications 180, 2175-2196 (2009)
    http://dx.doi.org/10.1016/j.cpc.2009.06.022


  The scalable eigensolver library ELPA was used in your run.
  ELPA is essential especially for large systems on hundreds or thousands of CPUs.
  For ELPA, please cite:

    Andreas Marek, Volker Blum, Rainer Johanni, Ville Havu, Bruno Lang,
    Thomas Auckenthaler, Alexander Heinecke, Hans-Joachim Bungartz, and Hermann Lederer,
    'The ELPA Library - Scalable Parallel Eigenvalue Solutions
    for Electronic Structure Theory and Computational Science'
    The Journal of Physics: Condensed Matter 26, 213201 (2014).
    http://dx.doi.org/10.1088/0953-8984/26/21/213201


  The ELSI infrastructure was used in your run to solve the Kohn-Sham electronic structure.
  Please check out http://elsi-interchange.org to learn more.
  If scalability is important for your project, please acknowledge ELSI by citing:

    V. W-z. Yu, F. Corsetti, A. Garcia, W. P. Huhn, M. Jacquelin, W. Jia,
    B. Lange, L. Lin, J. Lu, W. Mi, A. Seifitokaldani, A. Vazquez-Mayagoitia,
    C. Yang, H. Yang, and V. Blum
    'ELSI: A unified software interface for Kohn-Sham electronic structure solvers'
    Computer Physics Communications 222, 267-285 (2018).
    http://dx.doi.org/10.1016/j.cpc.2017.09.007


  For the real-space grid partitioning and parallelization used in this calculation, please cite:

    Ville Havu, Volker Blum, Paula Havu, and Matthias Scheffler,
    'Efficient O(N) integration for all-electron electronic structure calculation'
    'using numerically tabulated basis functions'
    Journal of Computational Physics 228, 8367-8379 (2009).
    http://dx.doi.org/10.1016/j.jcp.2009.08.008

  Of course, there are many other important community references, e.g., those cited in the
  above references. Our list is limited to references that describe implementations in the
  FHI-aims code. The reason is purely practical (length of this list) - please credit others as well.

------------------------------------------------------------
          Leaving FHI-aims.
          Date     :  20210620, Time     :  161041.712

          Computational steps:
          | Number of self-consistency cycles          :           17
          | Number of SCF (re)initializations          :            1

          Detailed time accounting                     :  max(cpu_time)    wall_clock(cpu1)
          | Total time                                 :       94.327 s          94.528 s
          | Preparation time                           :        0.190 s           0.196 s
          | Boundary condition initalization           :        0.000 s           0.003 s
          | Grid partitioning                          :        0.603 s           0.607 s
          | Preloading free-atom quantities on grid    :        0.013 s           0.017 s
          | Free-atom superposition energy             :        0.062 s           0.063 s
          | Total time for integrations                :       56.180 s          56.183 s
          | Total time for solution of K.-S. equations :        2.300 s           2.326 s
          | Total time for density update              :       19.902 s          19.870 s
          | Total time for mixing                      :        0.119 s           0.121 s
          | Total time for Hartree multipole update    :        0.143 s           0.150 s
          | Total time for Hartree multipole sum       :        7.912 s           7.915 s
          | Total time for total energy evaluation     :        0.009 s           0.031 s
          | Total time for scaled ZORA corrections     :        5.856 s           5.870 s

          Partial memory accounting:
          | Residual value for overall tracked memory usage across tasks :     0.000000 MB (should be 0.000000 MB)
          | Peak values for overall tracked memory usage (after allocating zora_vector2):
          |   Minimum:       30.410 MB (on task 40)
          |   Maximum:       37.263 MB (on task 43)
          |   Average:       34.029 MB
          | Largest tracked array allocation (hamiltonian_shell):
          |   Minimum:        9.680 MB (on task  1)
          |   Maximum:        9.680 MB (on task  1)
          |   Average:        9.680 MB
          Note:  These values currently only include a subset of arrays which are explicitly tracked.
          The "true" memory usage will be greater.

          Have a nice day.
------------------------------------------------------------
