  MPI-parallelism will be employed.
------------------------------------------------------------
          Invoking FHI-aims ...
          Version 180607
          Git rev. (modified): 6724847 Fix JSON memory corruption in scf_solver
          Compiled on 2018/06/27 at 16:00:31 on host coe.psc.edu.

          When using FHI-aims, please cite the following reference:

          Volker Blum, Ralf Gehrke, Felix Hanke, Paula Havu,
          Ville Havu, Xinguo Ren, Karsten Reuter, and Matthias Scheffler,
          'Ab Initio Molecular Simulations with Numeric Atom-Centered Orbitals',
          Computer Physics Communications 180, 2175-2196 (2009)

          For any questions about FHI-aims, please visit the aimsclub website
          with its forums and wiki. Contributions to both the forums and the
          wiki are warmly encouraged - they are for you, and everyone is welcome there.

------------------------------------------------------------



  Date     :  20210620, Time     :  171132.074
  Time zero on CPU 1             :   0.224831000000000E+00  s.
  Internal wall clock time zero  :           393441092.074  s.

  FHI-aims created a unique identifier for this run for later identification
  aims_uuid : F3F2E877-FD0D-4A1C-A688-7B92AC6E63F8

  Using       56 parallel tasks.
  Task        0 on host d021 reporting.
  Task        1 on host d021 reporting.
  Task        2 on host d021 reporting.
  Task        3 on host d021 reporting.
  Task        4 on host d021 reporting.
  Task        5 on host d021 reporting.
  Task        6 on host d021 reporting.
  Task        7 on host d021 reporting.
  Task        8 on host d021 reporting.
  Task        9 on host d021 reporting.
  Task       10 on host d021 reporting.
  Task       11 on host d021 reporting.
  Task       12 on host d021 reporting.
  Task       13 on host d021 reporting.
  Task       14 on host d021 reporting.
  Task       15 on host d021 reporting.
  Task       16 on host d021 reporting.
  Task       17 on host d021 reporting.
  Task       18 on host d021 reporting.
  Task       19 on host d021 reporting.
  Task       20 on host d021 reporting.
  Task       21 on host d021 reporting.
  Task       22 on host d021 reporting.
  Task       23 on host d021 reporting.
  Task       24 on host d021 reporting.
  Task       25 on host d021 reporting.
  Task       26 on host d021 reporting.
  Task       27 on host d021 reporting.
  Task       28 on host d021 reporting.
  Task       29 on host d021 reporting.
  Task       30 on host d021 reporting.
  Task       31 on host d021 reporting.
  Task       32 on host d021 reporting.
  Task       33 on host d021 reporting.
  Task       34 on host d021 reporting.
  Task       35 on host d021 reporting.
  Task       36 on host d021 reporting.
  Task       37 on host d021 reporting.
  Task       38 on host d021 reporting.
  Task       39 on host d021 reporting.
  Task       40 on host d021 reporting.
  Task       41 on host d021 reporting.
  Task       42 on host d021 reporting.
  Task       43 on host d021 reporting.
  Task       44 on host d021 reporting.
  Task       45 on host d021 reporting.
  Task       46 on host d021 reporting.
  Task       47 on host d021 reporting.
  Task       48 on host d021 reporting.
  Task       49 on host d021 reporting.
  Task       50 on host d021 reporting.
  Task       51 on host d021 reporting.
  Task       52 on host d021 reporting.
  Task       53 on host d021 reporting.
  Task       54 on host d021 reporting.
  Task       55 on host d021 reporting.

  Performing system and environment tests:
  *** Environment variable OMP_NUM_THREADS is not set
  *** For performance reasons you might want to set it to 1
  | Stacksize not measured: no C compiler
  | Checking for scalapack...
  | Testing pdtran()...
  | All pdtran() tests passed.

  Obtaining array dimensions for all initial allocations:
  
  -----------------------------------------------------------------------
  Parsing control.in (first pass over file, find array dimensions only).
  The contents of control.in will be repeated verbatim below
  unless switched off by setting 'verbatim_writeout .false.' .
  in the first line of control.in .
  -----------------------------------------------------------------------
  
  #===============================================================================
  # FHI-aims file: ./Runs/es/control.in
  # Created using the Atomic Simulation Environment (ASE)
  # Mon Jan 13 16:04:38 2020
  #===============================================================================
  xc                                 pbe
  relativistic                       zora scalar 1e-12
  occupation_type                    gaussian 0.0001
  load_balancing                     .true.
  KS_method                          scalapack_fast
  mixer                              pulay
  n_max_pulay                        5
  charge_mix_param                   0.4
  sc_accuracy_etot                   1e-6
  sc_accuracy_eev                    1e-4
  sc_accuracy_rho                    1e-6
  sc_iter_limit                      100
  prodbas_threshold                  1e-4
  basis_threshold                    1e-5
  override_illconditioning           .true.
  use_logsbt                         .true.
  spin                               none
  charge                             0
  #===============================================================================
  
  ################################################################################
  #
  #  FHI-aims code project
  # Volker Blum, Fritz Haber Institute Berlin, 2009
  #
  #  Suggested "tight" defaults for H atom (to be pasted into control.in file)
  #
  ################################################################################
    species        H
  #     global species definitions
      nucleus             1
      mass                1.00794
  #
      l_hartree           6
  #
      cut_pot             4.0  2.0  1.0
      basis_dep_cutoff    1e-4
  #
      radial_base         24 7.0
      radial_multiplier   2
      angular_grids       specified
        division   0.1930   50
        division   0.3175  110
        division   0.4293  194
        division   0.5066  302
        division   0.5626  434
  #      division   0.5922  590
  #      division   0.6227  974
  #      division   0.6868 1202
  #      outer_grid  770
        outer_grid  434
  ################################################################################
  #
  #  Definition of "minimal" basis
  #
  ################################################################################
  #     valence basis states
      valence      1  s   1.
  #     ion occupancy
      ion_occ      1  s   0.5
  ################################################################################
  #
  #  Suggested additional basis functions. For production calculations,
  #  uncomment them one after another (the most important basis functions are
  #  listed first).
  #
  #  Basis constructed for dimers: 0.5 A, 0.7 A, 1.0 A, 1.5 A, 2.5 A
  #
  ################################################################################
  #  "First tier" - improvements: -1014.90 meV to -62.69 meV
       hydro 2 s 2.1
       hydro 2 p 3.5
  #  "Second tier" - improvements: -12.89 meV to -1.83 meV
       hydro 1 s 0.85
       hydro 2 p 3.7
       hydro 2 s 1.2
       hydro 3 d 7
  #  "Third tier" - improvements: -0.25 meV to -0.12 meV
  #     hydro 4 f 11.2
  #     hydro 3 p 4.8
  #     hydro 4 d 9
  #     hydro 3 s 3.2
  ################################################################################
  #
  # For methods that use the localized form of the "resolution of identity" for
  # the two-electron Coulomb operator (RI_method LVL), particularly Hartree-Fock and
  # hybrid density functional calculations, the highest accuracy can be obtained by
  # uncommenting the line beginning with "for_aux"  below, thus adding an extra g radial
  # function to the construction of the product basis set for the expansion.
  # See Ref. New J. Phys. 17, 093020 (2015) for more information, particularly Figs. 1 and 6.
  #
  ################################################################################
  #
  # for_aux hydro 5 g 6.0
  ################################################################################
  #
  #  FHI-aims code project
  # Volker Blum, Fritz Haber Institute Berlin, 2009
  #
  #  Suggested "tight" defaults for C atom (to be pasted into control.in file)
  #
  ################################################################################
    species        C
  #     global species definitions
      nucleus             6
      mass                12.0107
  #
      l_hartree           6
  #
      cut_pot             4.0  2.0  1.0
      basis_dep_cutoff    1e-4
  #
      radial_base         34 7.0
      radial_multiplier   2
      angular_grids specified
        division   0.2187   50
        division   0.4416  110
        division   0.6335  194
        division   0.7727  302
        division   0.8772  434
  #      division   0.9334  590
  #      division   0.9924  770
  #      division   1.0230  974
  #      division   1.5020 1202
  #     outer_grid  974
        outer_grid  434
  ################################################################################
  #
  #  Definition of "minimal" basis
  #
  ################################################################################
  #     valence basis states
      valence      2  s   2.
      valence      2  p   2.
  #     ion occupancy
      ion_occ      2  s   1.
      ion_occ      2  p   1.
  ################################################################################
  #
  #  Suggested additional basis functions. For production calculations,
  #  uncomment them one after another (the most important basis functions are
  #  listed first).
  #
  #  Constructed for dimers: 1.0 A, 1.25 A, 1.5 A, 2.0 A, 3.0 A
  #
  ################################################################################
  #  "First tier" - improvements: -1214.57 meV to -155.61 meV
       hydro 2 p 1.7
       hydro 3 d 6
       hydro 2 s 4.9
  #  "Second tier" - improvements: -67.75 meV to -5.23 meV
       hydro 4 f 9.8
       hydro 3 p 5.2
       hydro 3 s 4.3
       hydro 5 g 14.4
       hydro 3 d 6.2
  #  "Third tier" - improvements: -2.43 meV to -0.60 meV
  #     hydro 2 p 5.6
  #     hydro 2 s 1.4
  #     hydro 3 d 4.9
  #     hydro 4 f 11.2
  #  "Fourth tier" - improvements: -0.39 meV to -0.18 meV
  #     hydro 2 p 2.1
  #     hydro 5 g 16.4
  #     hydro 4 d 13.2
  #     hydro 3 s 13.6
  #     hydro 4 f 17.6
  #  Further basis functions - improvements: -0.08 meV and below
  #     hydro 3 s 2
  #     hydro 3 p 6
  #     hydro 4 d 20
  ################################################################################
  #
  # For methods that use the localized form of the "resolution of identity" for
  # the two-electron Coulomb operator (RI_method LVL), particularly Hartree-Fock and
  # hybrid density functional calculations, the highest accuracy can be obtained by
  # uncommenting the line beginning with "for_aux"  below, thus adding an extra g radial
  # function to the construction of the product basis set for the expansion.
  # See Ref. New J. Phys. 17, 093020 (2015) for more information, particularly Figs. 1 and 6.
  #
  ################################################################################
  #
  # for_aux hydro 5 g 6.0
  
  -----------------------------------------------------------------------
  Completed first pass over input file control.in .
  -----------------------------------------------------------------------
  
  
  -----------------------------------------------------------------------
  Parsing geometry.in (first pass over file, find array dimensions only).
  The contents of geometry.in will be repeated verbatim below
  unless switched off by setting 'verbatim_writeout .false.' .
  in the first line of geometry.in .
  -----------------------------------------------------------------------
  
  #=======================================================
  # FHI-aims file: geometry.in
  # Created using the Atomic Simulation Environment (ASE)
  # Sun Jun 20 15:47:01 2021
  #=======================================================
  atom 25.3271060000000006 29.4178029999999993 38.4326480000000004 C
  atom 24.3891419999999997 28.5267109999999988 37.8675899999999999 C
  atom 26.2645809999999997 30.1430779999999992 37.5737049999999968 C
  atom 25.3354339999999993 29.5804790000000004 39.8337900000000005 C
  atom 24.3266370000000016 28.3540810000000008 36.4089260000000010 C
  atom 23.5128979999999999 27.8354709999999983 38.7211539999999985 C
  atom 26.2448890000000006 29.9102360000000012 36.1680810000000008 C
  atom 27.1814830000000001 31.0630190000000006 38.0764610000000019 C
  atom 24.4588959999999993 28.8994350000000004 40.6395440000000008 C
  atom 26.0433650000000014 30.2677709999999998 40.2902300000000011 H
  atom 23.3655510000000000 27.5484250000000017 35.8050210000000035 C
  atom 25.2565680000000015 29.0445209999999996 35.5874840000000034 C
  atom 22.7769469999999998 27.1521490000000014 38.3072960000000009 H
  atom 23.5399379999999994 28.0217829999999992 40.0850930000000005 C
  atom 27.1954920000000016 30.5532350000000008 35.3325949999999978 C
  atom 28.0626250000000006 31.7361679999999993 37.2499400000000023 C
  atom 27.2059749999999987 31.2789859999999997 39.1415859999999967 H
  atom 24.4787840000000010 29.0660120000000006 41.7161729999999977 H
  atom 23.3096099999999993 27.4067930000000004 34.4283819999999992 C
  atom 22.6320499999999996 27.0207990000000002 36.4084780000000023 H
  atom 25.2011170000000000 28.8943739999999991 34.1724469999999982 C
  atom 22.8238750000000010 27.4926390000000005 40.7111099999999979 H
  atom 27.1968640000000015 30.2844480000000011 33.9039619999999999 C
  atom 28.0861379999999983 31.4761190000000006 35.8940679999999972 C
  atom 28.7509620000000012 32.4646040000000013 37.6748540000000034 H
  atom 22.5574949999999994 26.7567109999999992 33.9834469999999982 H
  atom 24.2114240000000009 28.0681040000000017 33.6227779999999967 C
  atom 26.1975699999999989 29.5433209999999988 33.3409949999999995 C
  atom 28.3444840000000013 30.7927140000000001 33.0896919999999994 C
  atom 28.7932850000000009 32.0004679999999979 35.2550529999999966 H
  atom 24.1719420000000014 27.9248319999999985 32.5461480000000023 H
  atom 26.1116500000000009 29.3394510000000004 31.8563350000000014 C
  atom 28.2184950000000008 31.8335620000000006 32.1793529999999990 C
  atom 29.5889969999999991 30.1843469999999989 33.2471680000000021 C
  atom 25.0923699999999990 29.9541870000000010 31.1363410000000016 C
  atom 27.0029809999999983 28.5291539999999983 31.1645789999999998 C
  atom 27.2540779999999998 32.3272819999999967 32.0590800000000016 H
  atom 29.3028270000000006 32.2433490000000020 31.4258920000000010 C
  atom 29.6961769999999987 29.3672760000000004 33.9619319999999973 H
  atom 30.6736229999999992 30.5937109999999990 32.4853400000000008 C
  atom 24.9566820000000007 29.7511410000000005 29.7686659999999996 C
  atom 24.3817939999999993 30.5939790000000009 31.6610590000000016 H
  atom 26.8583779999999983 28.3145939999999996 29.8018339999999995 C
  atom 27.8234800000000000 28.0542140000000018 31.7016980000000004 H
  atom 29.1870259999999995 33.0527310000000014 30.7051510000000007 H
  atom 30.5284319999999987 31.6196020000000004 31.5742539999999998 C
  atom 31.6347090000000009 30.0901069999999997 32.6051640000000020 H
  atom 24.1471559999999990 30.2488600000000005 29.2340860000000013 H
  atom 25.8341010000000004 28.9213890000000013 29.1038029999999992 C
  atom 27.5638590000000008 27.6684540000000005 29.2827930000000016 H
  atom 31.3720509999999990 31.9344089999999987 30.9613849999999999 H
  atom 25.7263340000000014 28.7438259999999985 28.0337479999999992 H
  
  -----------------------------------------------------------------------
  Completed first pass over input file geometry.in .
  -----------------------------------------------------------------------
  

  Basic array size parameters:
  | Number of species                 :        2
  | Number of atoms                   :       52
  | Max. basis fn. angular momentum   :        4
  | Max. atomic/ionic basis occupied n:        2
  | Max. number of basis fn. types    :        2
  | Max. radial fns per species/type  :        8
  | Max. logarithmic grid size        :     1277
  | Max. radial integration grid size :       69
  | Max. angular integration grid size:      434
  | Max. angular grid division number :        8
  | Radial grid for Hartree potential :     1277
  | Number of spin channels           :        1

------------------------------------------------------------
          Reading file control.in.
------------------------------------------------------------
  XC: Using PBE gradient-corrected functionals.
  Scalar relativistic treatment of kinetic energy: ZORA.
  Threshold value for ZORA:   0.100000E-11
  Occupation type: Gaussian broadening, width =   0.100000E-03 eV.
  Since 'load_balancing .true.' is present in control.in, automatically turning on 'use_local_index .true.'.
  Using load balancing for integrations.
  Kohn-Sham electronic structure solved by the ELSI library.
  Using pulay charge density mixing.
  Pulay mixing - number of memorized iterations:    5
  Charge density mixing - mixing parameter:     0.4000
  Convergence accuracy of total energy:  0.1000E-05
  Convergence accuracy of sum of eigenvalues:  0.1000E-03
  Convergence accuracy of self-consistent charge density:  0.1000E-05
  Maximum number of s.-c. iterations  :   100
  * Ignoring prodbas_threshold
  Threshold for basis singularities:  0.1000E-04
  override_illconditioning: Explicitly overriding any built-in checks for an ill-conditioned overlap matrix.
  *** WARNING: If you use this flag, you should really know what you are doing.
  *** DO NOT keep this flag set by default in all your control.in files.
  Using 1D integrations for auxiliary 2-center integrals.
  Spin treatment: No spin polarisation.
  Charge =   0.000000E+00: Neutral system requested explicitly.
 
  Reading configuration options for species H                   .
  | Found nuclear charge :   1.0000
  | Found atomic mass :    1.00794000000000      amu
  | Found l_max for Hartree potential  :   6
  | Found cutoff potl. onset [A], width [A], scale factor :    4.00000    2.00000    1.00000
  | Threshold for basis-dependent cutoff potential is   0.100000E-03
  | Found data for basic radial integration grid :    24 points, outermost radius =    7.000 A
  | Found multiplier for basic radial grid :   2
  | Found angular grid specification: user-specified.
  | Specified grid contains     6 separate shells.
  | Check grid settings after all constraints further below.
  | Found free-atom valence shell :  1 s   1.000
  | No ionic wave fns used. Skipping ion_occ.
  | Found hydrogenic basis function :  2 s   2.100
  | Found hydrogenic basis function :  2 p   3.500
  | Found hydrogenic basis function :  1 s   0.850
  | Found hydrogenic basis function :  2 p   3.700
  | Found hydrogenic basis function :  2 s   1.200
  | Found hydrogenic basis function :  3 d   7.000
  Species H                   : Missing cutoff potential type.
  Defaulting to exp(1/x)/(1-x)^2 type cutoff potential.
  Species H : No 'logarithmic' tag. Using default grid for free atom:
  | Default logarithmic grid data [bohr] : 0.1000E-03 0.1000E+03 0.1012E+01
  Species H : On-site basis accuracy parameter (for Gram-Schmidt orthonormalisation) not specified.
  Using default value basis_acc =  0.1000000E-03.
  Species H                   : Using default innermost maximum threshold i_radial=  2 for radial functions.
  Species H                   : Default cutoff onset for free atom density etc. : 0.40000000E+01 AA.
  Species H                   : Basic radial grid will be enhanced according to radial_multiplier =   2, to contain    49 grid points.
 
  Reading configuration options for species C                   .
  | Found nuclear charge :   6.0000
  | Found atomic mass :    12.0107000000000      amu
  | Found l_max for Hartree potential  :   6
  | Found cutoff potl. onset [A], width [A], scale factor :    4.00000    2.00000    1.00000
  | Threshold for basis-dependent cutoff potential is   0.100000E-03
  | Found data for basic radial integration grid :    34 points, outermost radius =    7.000 A
  | Found multiplier for basic radial grid :   2
  | Found angular grid specification: user-specified.
  | Specified grid contains     6 separate shells.
  | Check grid settings after all constraints further below.
  | Found free-atom valence shell :  2 s   2.000
  | Found free-atom valence shell :  2 p   2.000
  | No ionic wave fns used. Skipping ion_occ.
  | No ionic wave fns used. Skipping ion_occ.
  | Found hydrogenic basis function :  2 p   1.700
  | Found hydrogenic basis function :  3 d   6.000
  | Found hydrogenic basis function :  2 s   4.900
  | Found hydrogenic basis function :  4 f   9.800
  | Found hydrogenic basis function :  3 p   5.200
  | Found hydrogenic basis function :  3 s   4.300
  | Found hydrogenic basis function :  5 g  14.400
  | Found hydrogenic basis function :  3 d   6.200
  Species C                   : Missing cutoff potential type.
  Defaulting to exp(1/x)/(1-x)^2 type cutoff potential.
  Species C : No 'logarithmic' tag. Using default grid for free atom:
  | Default logarithmic grid data [bohr] : 0.1000E-03 0.1000E+03 0.1012E+01
  Species C : On-site basis accuracy parameter (for Gram-Schmidt orthonormalisation) not specified.
  Using default value basis_acc =  0.1000000E-03.
  Species C                   : Using default innermost maximum threshold i_radial=  2 for radial functions.
  Species C                   : Default cutoff onset for free atom density etc. : 0.40000000E+01 AA.
  Species C                   : Basic radial grid will be enhanced according to radial_multiplier =   2, to contain    69 grid points.
 
  Finished reading input file 'control.in'. Consistency checks are next.
 
  MPI_IN_PLACE appears to work with this MPI implementation.
  | Keeping use_mpi_in_place .true. (see manual).
  Target number of points in a grid batch is not set. Defaulting to  100
  Method for grid partitioning is not set. Defaulting to parallel hash+maxmin partitioning.
  Batch size limit is not set. Defaulting to    200
  By default, will store active basis functions for each batch.
  If in need of memory, prune_basis_once .false. can be used to disable this option.
  communication_type for Hartree potential was not specified.
  Defaulting to calc_hartree .
  Pulay mixer: Number of initial linear mixing iterations not set.
  Defaulting to    0 iterations.
  Work space size for distributed Hartree potential not set.
  Defaulting to   0.200000E+03 MB.
  Algorithm-dependent basis array size parameters:
  | n_max_pulay                         :        5
  Presetting      1001 iterations before the initial mixing cycle
  is restarted anyway using the sc_init_iter criterion / keyword.
  Presetting a factor      1.000 between actual scf density residual
  and density convergence criterion sc_accuracy_rho below which sc_init_iter
  takes no effect.
  Calculation of forces was not defined in control.in. No forces will be calculated.
  Geometry relaxation not requested: no relaxation will be performed.
  No accuracy limit for integral partition fn. given. Defaulting to  0.1000E-14.
  No threshold value for u(r) in integrations given. Defaulting to  0.1000E-05.
  No accuracy for occupation numbers given. Defaulting to  0.1000E-12.
  No threshold value for occupation numbers given. Defaulting to  0.0000E+00.
  No accuracy for fermi level given. Defaulting to  0.1000E-19.
  Maximum # of iterations to find E_F not set. Defaulting to  200.
  Will not use alltoall communication since running on < 1024 CPUs.
  partition_type (choice of integration weights) for integrals was not specified.
  | Using a version of the partition function of Stratmann and coworkers ('stratmann_sparse').
  | At each grid point, the set of atoms used to build the partition table is smoothly restricted to
  | only those atoms whose free-atom density would be non-zero at that grid point.
  Partitioning for Hartree potential was not defined. Using partition_type for integrals.
  | Adjusted default value of keyword multip_moments_threshold to:       0.10000000E-11
  | This value may affect high angular momentum components of the Hartree potential in periodic systems.
  No q(lm)/r^(l+1) cutoff set for long-range Hartree potential.
  | Using default value of  0.100000E-09 .
  | Verify using the multipole_threshold keyword.
  Defaulting to new monopole extrapolation.
  Density update method: automatic selection selected.
 * Warning: use_local_index and/or load_balancing needs packed_matrix_format = index
 * Changing the default setting to packed_matrix_format = index
------------------------------------------------------------


------------------------------------------------------------
          Reading geometry description geometry.in.
------------------------------------------------------------
  Input structure read successfully.
  The structure contains       52 atoms,  and a total of        212.000 electrons.

  Input geometry:
  | No unit cell requested.
  | Atomic structure:
  |       Atom                x [A]            y [A]            z [A]
  |    1: Species C            25.32710600       29.41780300       38.43264800
  |    2: Species C            24.38914200       28.52671100       37.86759000
  |    3: Species C            26.26458100       30.14307800       37.57370500
  |    4: Species C            25.33543400       29.58047900       39.83379000
  |    5: Species C            24.32663700       28.35408100       36.40892600
  |    6: Species C            23.51289800       27.83547100       38.72115400
  |    7: Species C            26.24488900       29.91023600       36.16808100
  |    8: Species C            27.18148300       31.06301900       38.07646100
  |    9: Species C            24.45889600       28.89943500       40.63954400
  |   10: Species H            26.04336500       30.26777100       40.29023000
  |   11: Species C            23.36555100       27.54842500       35.80502100
  |   12: Species C            25.25656800       29.04452100       35.58748400
  |   13: Species H            22.77694700       27.15214900       38.30729600
  |   14: Species C            23.53993800       28.02178300       40.08509300
  |   15: Species C            27.19549200       30.55323500       35.33259500
  |   16: Species C            28.06262500       31.73616800       37.24994000
  |   17: Species H            27.20597500       31.27898600       39.14158600
  |   18: Species H            24.47878400       29.06601200       41.71617300
  |   19: Species C            23.30961000       27.40679300       34.42838200
  |   20: Species H            22.63205000       27.02079900       36.40847800
  |   21: Species C            25.20111700       28.89437400       34.17244700
  |   22: Species H            22.82387500       27.49263900       40.71111000
  |   23: Species C            27.19686400       30.28444800       33.90396200
  |   24: Species C            28.08613800       31.47611900       35.89406800
  |   25: Species H            28.75096200       32.46460400       37.67485400
  |   26: Species H            22.55749500       26.75671100       33.98344700
  |   27: Species C            24.21142400       28.06810400       33.62277800
  |   28: Species C            26.19757000       29.54332100       33.34099500
  |   29: Species C            28.34448400       30.79271400       33.08969200
  |   30: Species H            28.79328500       32.00046800       35.25505300
  |   31: Species H            24.17194200       27.92483200       32.54614800
  |   32: Species C            26.11165000       29.33945100       31.85633500
  |   33: Species C            28.21849500       31.83356200       32.17935300
  |   34: Species C            29.58899700       30.18434700       33.24716800
  |   35: Species C            25.09237000       29.95418700       31.13634100
  |   36: Species C            27.00298100       28.52915400       31.16457900
  |   37: Species H            27.25407800       32.32728200       32.05908000
  |   38: Species C            29.30282700       32.24334900       31.42589200
  |   39: Species H            29.69617700       29.36727600       33.96193200
  |   40: Species C            30.67362300       30.59371100       32.48534000
  |   41: Species C            24.95668200       29.75114100       29.76866600
  |   42: Species H            24.38179400       30.59397900       31.66105900
  |   43: Species C            26.85837800       28.31459400       29.80183400
  |   44: Species H            27.82348000       28.05421400       31.70169800
  |   45: Species H            29.18702600       33.05273100       30.70515100
  |   46: Species C            30.52843200       31.61960200       31.57425400
  |   47: Species H            31.63470900       30.09010700       32.60516400
  |   48: Species H            24.14715600       30.24886000       29.23408600
  |   49: Species C            25.83410100       28.92138900       29.10380300
  |   50: Species H            27.56385900       27.66845400       29.28279300
  |   51: Species H            31.37205100       31.93440900       30.96138500
  |   52: Species H            25.72633400       28.74382600       28.03374800
  |

  | The smallest distance between any two atoms is         1.08620038 AA.
  |
  | The first atom of this pair is atom number                      6 .
  | The second atom of this pair is atom number                    13 .

  Number of empty states per atom not set in control.in - providing a guess from actual geometry.
  | Total number of empty states used during s.c.f. cycle:      126
  If you use a very high smearing, use empty_states (per atom!) in control.in to increase this value.

  Structure-dependent array size parameters: 
  | Maximum number of distinct radial functions  :       18
  | Maximum number of basis functions            :     1548
  | Number of Kohn-Sham states (occupied + empty):      232
------------------------------------------------------------

------------------------------------------------------------
          Preparing all fixed parts of the calculation.
------------------------------------------------------------
  Determining machine precision:
    2.225073858507201E-308
  Setting up grids for atomic and cluster calculations.

  Creating wave function, potential, and density for free atoms.

  Species: H

  List of occupied orbitals and eigenvalues:
    n    l              occ      energy [Ha]    energy [eV]
    1    0           1.0000        -0.238386        -6.4868


  Species: C

  List of occupied orbitals and eigenvalues:
    n    l              occ      energy [Ha]    energy [eV]
    1    0           2.0000       -10.049212      -273.4530
    2    0           2.0000        -0.504761       -13.7352
    2    1           2.0000        -0.193631        -5.2690

  Creating fixed part of basis set: Ionic, confined, hydrogenic.
 
  H                    hydrogenic:
 
  List of hydrogenic basis orbitals: 
    n    l      effective z      eigenvalue [eV]  inner max. [A]     outer max. [A]     outer radius [A]   
    2    0         2.100000       -14.9965           0.193243           1.317208           5.373006
    2    1         3.500000       -41.6672           0.602369           0.602369           4.056063
    1    0         0.850000        -9.8292           0.624871           0.624871           5.373006
    2    1         3.700000       -46.5653           0.573622           0.573622           3.910002
    2    0         1.200000        -4.5995           0.334980           2.228188           5.505995
    3    2         7.000000       -74.0753           0.680699           0.680699           3.769201
 
 
  C                    hydrogenic:
 
  List of hydrogenic basis orbitals: 
    n    l      effective z      eigenvalue [eV]  inner max. [A]     outer max. [A]     outer radius [A]   
    2    1         1.700000        -9.8152           1.245706           1.245706           5.401630
    3    2         6.000000       -54.4226           0.792453           0.792453           4.178599
    2    0         4.900000       -81.6681           0.082559           0.562749           3.353238
    4    3         9.800000       -81.6681           0.863254           0.863254           4.028125
    3    1         5.200000       -40.8774           0.305389           1.215618           4.898362
    3    0         4.300000       -27.9508           0.091041           1.610311           5.401630
    5    4        14.400000      -112.8510           0.917666           0.917666           3.883070
    3    2         6.200000       -58.1113           0.763917           0.763917           4.077671
 

  Adding cutoff potential to free-atom effective potential.
  Creating atomic-like basis functions for current effective potential.

  Species H                   :

  List of atomic basis orbitals and eigenvalues:
    n    l      energy [Ha]    energy [eV]    outer radius [A]
    1    0        -0.238386        -6.4868       5.373006


  Species C                   :

  List of atomic basis orbitals and eigenvalues:
    n    l      energy [Ha]    energy [eV]    outer radius [A]
    1    0       -10.049212      -273.4530       1.934409
    2    0        -0.504761       -13.7352       5.271162
    2    1        -0.193631        -5.2690       5.401630

  Assembling full basis from fixed parts.
  | Species H :   atomic orbital   1 s accepted.
  | Species H :    hydro orbital   2 s accepted.
  | Species H :    hydro orbital   1 s accepted.
  | Species H :    hydro orbital   2 s accepted.
  | Species H :    hydro orbital   2 p accepted.
  | Species H :    hydro orbital   2 p accepted.
  | Species H :    hydro orbital   3 d accepted.
  | Species C :   atomic orbital   1 s accepted.
  | Species C :    hydro orbital   2 s accepted.
  | Species C :   atomic orbital   2 s accepted.
  | Species C :    hydro orbital   3 s accepted.
  | Species C :    hydro orbital   3 p accepted.
  | Species C :   atomic orbital   2 p accepted.
  | Species C :    hydro orbital   2 p accepted.
  | Species C :    hydro orbital   3 d accepted.
  | Species C :    hydro orbital   3 d accepted.
  | Species C :    hydro orbital   4 f accepted.
  | Species C :    hydro orbital   5 g accepted.
 
  Basis size parameters after reduction:
  | Total number of radial functions:       18
  | Total number of basis functions :     1548
 
  Per-task memory consumption for arrays in subroutine allocate_ext:
  |           4.449576MB.
  Testing on-site integration grid accuracy.
  |  Species  Function  <phi|h_atom|phi> (log., in eV)  <phi|h_atom|phi> (rad., in eV)
           1        1                 -6.4870767962                 -6.4871688290
           1        2                 13.5032046589                 13.5028982997
           1        3                 32.8195184817                 32.8119941656
           1        4                 33.8513856511                 33.7670005767 ***
           1        5                 28.8544614965                 28.8544615203
           1        6                 59.6326952547                 59.6327656460
           1        7                 60.2719308513                 60.2719305949
           2        8               -273.4529726040               -273.4529710464
           2        9                -10.7721037319                -10.7721022101
           2       10                 17.6044132601                 17.6044162063
           2       11                 53.7706460658                 53.7706913770
           2       12                 15.0973290362                 15.0973256030
           2       13                  3.8545134692                  3.8545724687
           2       14                 12.1156992592                 12.1182024431
           2       15                 29.4352039302                 29.4352041816
           2       16                 54.8741144708                 54.8740268729
           2       17                 59.3556032049                 59.3556031382
           2       18                 93.4551837154                 93.4551838009
 * Note: Onsite integrals marked "***" above are less accurate than
 * onsite_accuracy_threshold =    0.03000 eV. Usually, this is harmless.
 * When in doubt, tighten the "radial" and/or "radial_multiplier" flags to check.

  Preparing densities etc. for the partition functions (integrals / Hartree potential).

  Preparations completed.
  max(cpu_time)          :      0.195 s.
  Wall clock time (cpu1) :      0.181 s.
------------------------------------------------------------

------------------------------------------------------------
          Begin self-consistency loop: Initialization.

          Date     :  20210620, Time     :  171132.445
------------------------------------------------------------

  Initializing index lists of integration centers etc. from given atomic structure:
  | Number of centers in hartree potential         :        52
  | Number of centers in hartree multipole         :        52
  | Number of centers in electron density summation:        52
  | Number of centers in basis integrals           :        52
  | Number of centers in integrals                 :        52
  | Number of centers in hamiltonian               :        52
  * Using 56 tasks for Scalapack Eigenvalue solver.
  Detailed listing of tasks and assigned k-points:
  (for non-periodic systems, the "k-point" denotes an internal label only)
   Task     0 k-point     1 on d021
   Task     1 k-point     1 on d021
   Task     2 k-point     1 on d021
   Task     3 k-point     1 on d021
   Task     4 k-point     1 on d021
   Task     5 k-point     1 on d021
   Task     6 k-point     1 on d021
   Task     7 k-point     1 on d021
   Task     8 k-point     1 on d021
   Task     9 k-point     1 on d021
   Task    10 k-point     1 on d021
   Task    11 k-point     1 on d021
   Task    12 k-point     1 on d021
   Task    13 k-point     1 on d021
   Task    14 k-point     1 on d021
   Task    15 k-point     1 on d021
   Task    16 k-point     1 on d021
   Task    17 k-point     1 on d021
   Task    18 k-point     1 on d021
   Task    19 k-point     1 on d021
   Task    20 k-point     1 on d021
   Task    21 k-point     1 on d021
   Task    22 k-point     1 on d021
   Task    23 k-point     1 on d021
   Task    24 k-point     1 on d021
   Task    25 k-point     1 on d021
   Task    26 k-point     1 on d021
   Task    27 k-point     1 on d021
   Task    28 k-point     1 on d021
   Task    29 k-point     1 on d021
   Task    30 k-point     1 on d021
   Task    31 k-point     1 on d021
   Task    32 k-point     1 on d021
   Task    33 k-point     1 on d021
   Task    34 k-point     1 on d021
   Task    35 k-point     1 on d021
   Task    36 k-point     1 on d021
   Task    37 k-point     1 on d021
   Task    38 k-point     1 on d021
   Task    39 k-point     1 on d021
   Task    40 k-point     1 on d021
   Task    41 k-point     1 on d021
   Task    42 k-point     1 on d021
   Task    43 k-point     1 on d021
   Task    44 k-point     1 on d021
   Task    45 k-point     1 on d021
   Task    46 k-point     1 on d021
   Task    47 k-point     1 on d021
   Task    48 k-point     1 on d021
   Task    49 k-point     1 on d021
   Task    50 k-point     1 on d021
   Task    51 k-point     1 on d021
   Task    52 k-point     1 on d021
   Task    53 k-point     1 on d021
   Task    54 k-point     1 on d021
   Task    55 k-point     1 on d021
  Tasks:    56 split into      8 X      7 BLACS grid
  Calculating block size based on n_basis =         1548 max_nprow =            8 max_npcol =            7
  ScaLAPACK block size set to:           16
  Allocating        0.366 MB for ovlp
  Allocating        0.366 MB for ham
  Allocating        0.366 MB for eigenvec
  Required Scalapack workspace - INTEGER:            1 REAL:             1
  Partitioning the integration grid into batches with parallel hashing+maxmin method.
  | Number of batches:     7606
  | Maximal batch size:     200
  | Minimal batch size:       3
  | Average batch size:     114.054
  | Standard deviation of batch sizes:      37.128

  Integration load balanced across     56 MPI tasks.
  Work distribution over tasks is as follows:
  Task      0 has      15638 integration points.
  Task      1 has      15635 integration points.
  Task      2 has      15330 integration points.
  Task      3 has      15647 integration points.
  Task      4 has      15428 integration points.
  Task      5 has      15580 integration points.
  Task      6 has      15366 integration points.
  Task      7 has      15602 integration points.
  Task      8 has      15446 integration points.
  Task      9 has      15439 integration points.
  Task     10 has      15530 integration points.
  Task     11 has      15433 integration points.
  Task     12 has      15474 integration points.
  Task     13 has      15376 integration points.
  Task     14 has      15530 integration points.
  Task     15 has      15519 integration points.
  Task     16 has      15489 integration points.
  Task     17 has      15558 integration points.
  Task     18 has      15540 integration points.
  Task     19 has      15500 integration points.
  Task     20 has      15335 integration points.
  Task     21 has      15509 integration points.
  Task     22 has      15544 integration points.
  Task     23 has      15470 integration points.
  Task     24 has      15600 integration points.
  Task     25 has      15490 integration points.
  Task     26 has      15424 integration points.
  Task     27 has      15345 integration points.
  Task     28 has      15607 integration points.
  Task     29 has      15611 integration points.
  Task     30 has      15357 integration points.
  Task     31 has      15586 integration points.
  Task     32 has      15506 integration points.
  Task     33 has      15513 integration points.
  Task     34 has      15389 integration points.
  Task     35 has      15509 integration points.
  Task     36 has      15501 integration points.
  Task     37 has      15460 integration points.
  Task     38 has      15556 integration points.
  Task     39 has      15462 integration points.
  Task     40 has      15523 integration points.
  Task     41 has      15345 integration points.
  Task     42 has      15505 integration points.
  Task     43 has      15515 integration points.
  Task     44 has      15489 integration points.
  Task     45 has      15522 integration points.
  Task     46 has      15488 integration points.
  Task     47 has      15544 integration points.
  Task     48 has      15355 integration points.
  Task     49 has      15563 integration points.
  Task     50 has      15549 integration points.
  Task     51 has      15398 integration points.
  Task     52 has      15550 integration points.
  Task     53 has      15531 integration points.
  Task     54 has      15410 integration points.
  Task     55 has      15375 integration points.
  Initializing partition tables, free-atom densities, potentials, etc. across the integration grid (initialize_grid_storage).
  | initialize_grid_storage: Actual outermost partition radius vs. multipole_radius_free
  | (-- VB: in principle, multipole_radius_free should be larger, hence this output)
  | Species        1: Confinement radius =              6.000000000000000 AA, multipole_radius_free =              6.071692442739658 AA.
  | Species        1: outer_partition_radius set to              6.071692442739658 AA .
  | Species        2: Confinement radius =              6.000000000000000 AA, multipole_radius_free =              6.029870734432609 AA.
  | Species        2: outer_partition_radius set to              6.029870734432609 AA .
  | The sparse table of interatomic distances needs     32.0360 kbyte instead of    21.6320 kbyte of memory.
  | Using the partition_type stratmann_smoother will reduce your memory usage.
  | Net number of integration points:   867496
  | of which are non-zero points    :   689759
  Renormalizing the initial density to the exact electron count on the 3D integration grid.
  | Initial density: Formal number of electrons (from input files) :     212.0000000000
  | Integrated number of electrons on 3D grid     :     212.0000842440
  | Charge integration error                      :       0.0000842440
  | Normalization factor for density and gradient :       0.9999996026
  Obtaining max. number of non-zero basis functions in each batch (get_n_compute_maxes).
  | Maximal number of non-zero basis functions:     1047
  Selecting the method for density update.
  Loop over occupied states selected for charge density update.
  Hamiltonian matrix size:
  | Size of matrix non-packed:               1198926
  | Size of matrix packed:         1059318
  Allocating        2.873 MB for KS_eigenvector
  use_local_index: Max. local matrix size =       848790
  Task:     0 matrix size:     246677
  Task:     1 matrix size:     134940
  Task:     2 matrix size:     332461
  Task:     3 matrix size:     326053
  Task:     4 matrix size:     449296
  Task:     5 matrix size:     623268
  Task:     6 matrix size:     756204
  Task:     7 matrix size:     224064
  Task:     8 matrix size:     225430
  Task:     9 matrix size:     377095
  Task:    10 matrix size:     666928
  Task:    11 matrix size:     793319
  Task:    12 matrix size:     666562
  Task:    13 matrix size:     723270
  Task:    14 matrix size:     427500
  Task:    15 matrix size:     346775
  Task:    16 matrix size:     411469
  Task:    17 matrix size:     707558
  Task:    18 matrix size:     707927
  Task:    19 matrix size:     356710
  Task:    20 matrix size:     353348
  Task:    21 matrix size:     366946
  Task:    22 matrix size:     241020
  Task:    23 matrix size:     140185
  Task:    24 matrix size:     661505
  Task:    25 matrix size:     517309
  Task:    26 matrix size:     346067
  Task:    27 matrix size:     286615
  Task:    28 matrix size:     274110
  Task:    29 matrix size:     466559
  Task:    30 matrix size:     592409
  Task:    31 matrix size:     228563
  Task:    32 matrix size:     372824
  Task:    33 matrix size:     177906
  Task:    34 matrix size:     100576
  Task:    35 matrix size:     554661
  Task:    36 matrix size:     697955
  Task:    37 matrix size:     776614
  Task:    38 matrix size:     331381
  Task:    39 matrix size:     129795
  Task:    40 matrix size:     347317
  Task:    41 matrix size:     175387
  Task:    42 matrix size:     797700
  Task:    43 matrix size:     848790
  Task:    44 matrix size:     717750
  Task:    45 matrix size:     532372
  Task:    46 matrix size:     602680
  Task:    47 matrix size:     294119
  Task:    48 matrix size:     283270
  Task:    49 matrix size:     770823
  Task:    50 matrix size:     614394
  Task:    51 matrix size:     398991
  Task:    52 matrix size:     502063
  Task:    53 matrix size:     289800
  Task:    54 matrix size:     299572
  Task:    55 matrix size:     211973
  Integrating Hamiltonian matrix: batch-based integration.
  Time summed over all CPUs for integration: real work      167.569 s, elapsed      329.304 s
  Time get_set_sparse_local_matrix_scalapack:     0.016890 s
  Start compute_balanced_batch_distribution
  Done load balancing, time needed:      0.009 s
  Integrating overlap matrix with loadbalancing
  Time summed over all CPUs for integration: real work       47.017 s, elapsed       54.596 s
  Time get_set_full_local_matrix_scalapack:     0.019425 s

  Updating Kohn-Sham eigenvalues and eigenvectors using ELSI and the ELPA eigensolver.
  Overlap matrix is not singular
  | Lowest and highest eigenvalues :  0.12E+02,  0.86E-04
  Finished singularity check of overlap matrix
  | Time :     0.093 s
  Finished Cholesky decomposition
  | Time :     0.021 s
  Finished transformation to standard eigenproblem
  | Time :     0.016 s
  Starting ELPA eigensolver
  Finished solving standard eigenproblem
  | Time :     0.098 s
  Finished back-transformation of eigenvectors
  | Time :     0.004 s

  Obtaining occupation numbers and chemical potential using ELSI.
  | Chemical potential (Fermi level):    -8.21407732 eV
  Writing Kohn-Sham eigenvalues.

  State    Occupation    Eigenvalue [Ha]    Eigenvalue [eV]
      1       2.00000         -10.174428         -276.86027
      2       2.00000         -10.174278         -276.85619
      3       2.00000         -10.173787         -276.84282
      4       2.00000         -10.173627         -276.83848
      5       2.00000         -10.173575         -276.83705
      6       2.00000         -10.173559         -276.83662
      7       2.00000         -10.173140         -276.82522
      8       2.00000         -10.173136         -276.82511
      9       2.00000         -10.172737         -276.81425
     10       2.00000         -10.172658         -276.81211
     11       2.00000         -10.172330         -276.80319
     12       2.00000         -10.172188         -276.79933
     13       2.00000         -10.172072         -276.79616
     14       2.00000         -10.171681         -276.78552
     15       2.00000         -10.171615         -276.78374
     16       2.00000         -10.171572         -276.78256
     17       2.00000         -10.171497         -276.78051
     18       2.00000         -10.171277         -276.77452
     19       2.00000         -10.171192         -276.77222
     20       2.00000         -10.170952         -276.76568
     21       2.00000         -10.165482         -276.61684
     22       2.00000         -10.165301         -276.61193
     23       2.00000         -10.164409         -276.58765
     24       2.00000         -10.163905         -276.57392
     25       2.00000         -10.163570         -276.56480
     26       2.00000         -10.163471         -276.56211
     27       2.00000         -10.163260         -276.55639
     28       2.00000         -10.163066         -276.55110
     29       2.00000         -10.162838         -276.54488
     30       2.00000         -10.162489         -276.53539
     31       2.00000         -10.160648         -276.48530
     32       2.00000         -10.160075         -276.46972
     33       2.00000          -1.020846          -27.77862
     34       2.00000          -1.004386          -27.33074
     35       2.00000          -0.999177          -27.18900
     36       2.00000          -0.991244          -26.97312
     37       2.00000          -0.986434          -26.84223
     38       2.00000          -0.952735          -25.92525
     39       2.00000          -0.927682          -25.24350
     40       2.00000          -0.913862          -24.86745
     41       2.00000          -0.903137          -24.57560
     42       2.00000          -0.896702          -24.40049
     43       2.00000          -0.887448          -24.14870
     44       2.00000          -0.886021          -24.10986
     45       2.00000          -0.873546          -23.77039
     46       2.00000          -0.866943          -23.59071
     47       2.00000          -0.860873          -23.42555
     48       2.00000          -0.850463          -23.14228
     49       2.00000          -0.779835          -21.22040
     50       2.00000          -0.778491          -21.18381
     51       2.00000          -0.776233          -21.12238
     52       2.00000          -0.770086          -20.95509
     53       2.00000          -0.750038          -20.40957
     54       2.00000          -0.749011          -20.38163
     55       2.00000          -0.745473          -20.28534
     56       2.00000          -0.735691          -20.01917
     57       2.00000          -0.723164          -19.67829
     58       2.00000          -0.700716          -19.06744
     59       2.00000          -0.684821          -18.63492
     60       2.00000          -0.681626          -18.54798
     61       2.00000          -0.669931          -18.22976
     62       2.00000          -0.653193          -17.77429
     63       2.00000          -0.645671          -17.56960
     64       2.00000          -0.639785          -17.40944
     65       2.00000          -0.632841          -17.22048
     66       2.00000          -0.630762          -17.16390
     67       2.00000          -0.617791          -16.81095
     68       2.00000          -0.616363          -16.77208
     69       2.00000          -0.609946          -16.59746
     70       2.00000          -0.602252          -16.38810
     71       2.00000          -0.592665          -16.12724
     72       2.00000          -0.583315          -15.87282
     73       2.00000          -0.581584          -15.82571
     74       2.00000          -0.576561          -15.68902
     75       2.00000          -0.573294          -15.60012
     76       2.00000          -0.571072          -15.53965
     77       2.00000          -0.569778          -15.50446
     78       2.00000          -0.566194          -15.40691
     79       2.00000          -0.564597          -15.36348
     80       2.00000          -0.553581          -15.06371
     81       2.00000          -0.537742          -14.63269
     82       2.00000          -0.526912          -14.33800
     83       2.00000          -0.523302          -14.23977
     84       2.00000          -0.521140          -14.18095
     85       2.00000          -0.517064          -14.07003
     86       2.00000          -0.509778          -13.87176
     87       2.00000          -0.507231          -13.80247
     88       2.00000          -0.504783          -13.73584
     89       2.00000          -0.502395          -13.67087
     90       2.00000          -0.500485          -13.61889
     91       2.00000          -0.498155          -13.55548
     92       2.00000          -0.496127          -13.50029
     93       2.00000          -0.495282          -13.47732
     94       2.00000          -0.484971          -13.19673
     95       2.00000          -0.481595          -13.10486
     96       2.00000          -0.453957          -12.35281
     97       2.00000          -0.437565          -11.90675
     98       2.00000          -0.428464          -11.65911
     99       2.00000          -0.410452          -11.16898
    100       2.00000          -0.407436          -11.08691
    101       2.00000          -0.403487          -10.97944
    102       2.00000          -0.402725          -10.95871
    103       2.00000          -0.396125          -10.77911
    104       2.00000          -0.390283          -10.62014
    105       2.00000          -0.374071          -10.17899
    106       2.00000          -0.357793           -9.73604
    107       0.00000          -0.252968           -6.88361
    108       0.00000          -0.238449           -6.48853
    109       0.00000          -0.223029           -6.06892
    110       0.00000          -0.221209           -6.01941
    111       0.00000          -0.210592           -5.73049
    112       0.00000          -0.208040           -5.66105
    113       0.00000          -0.206754           -5.62607
    114       0.00000          -0.205410           -5.58950
    115       0.00000          -0.172671           -4.69862
    116       0.00000          -0.163085           -4.43776
    117       0.00000          -0.140031           -3.81043
    118       0.00000          -0.082799           -2.25306
    119       0.00000          -0.074449           -2.02585
    120       0.00000          -0.073292           -1.99438
    121       0.00000          -0.071656           -1.94986
    122       0.00000          -0.069977           -1.90418
    123       0.00000          -0.066212           -1.80173
    124       0.00000          -0.062853           -1.71032
    125       0.00000          -0.062158           -1.69141
    126       0.00000          -0.054911           -1.49419
    127       0.00000          -0.044679           -1.21577
    128       0.00000          -0.041130           -1.11922
    129       0.00000          -0.037882           -1.03083
    130       0.00000          -0.034031           -0.92602
    131       0.00000          -0.027981           -0.76141
    132       0.00000          -0.020224           -0.55033
    133       0.00000          -0.019456           -0.52943
    134       0.00000          -0.011915           -0.32423
    135       0.00000          -0.011071           -0.30127
    136       0.00000          -0.009816           -0.26710
    137       0.00000          -0.005769           -0.15699
    138       0.00000          -0.001980           -0.05389
    139       0.00000           0.001252            0.03407
    140       0.00000           0.002886            0.07852
    141       0.00000           0.004702            0.12793
    142       0.00000           0.011267            0.30659
    143       0.00000           0.012283            0.33425
    144       0.00000           0.014204            0.38652
    145       0.00000           0.019751            0.53744
    146       0.00000           0.021560            0.58669
    147       0.00000           0.028438            0.77384
    148       0.00000           0.031292            0.85151
    149       0.00000           0.034799            0.94692
    150       0.00000           0.038145            1.03797
    151       0.00000           0.044864            1.22081
    152       0.00000           0.046413            1.26296
    153       0.00000           0.048453            1.31847
    154       0.00000           0.050630            1.37771
    155       0.00000           0.055280            1.50426
    156       0.00000           0.057644            1.56858
    157       0.00000           0.060951            1.65855
    158       0.00000           0.063031            1.71517
    159       0.00000           0.065917            1.79369
    160       0.00000           0.066291            1.80387
    161       0.00000           0.070778            1.92596
    162       0.00000           0.071862            1.95547
    163       0.00000           0.073066            1.98823
    164       0.00000           0.076662            2.08608
    165       0.00000           0.078325            2.13134
    166       0.00000           0.082268            2.23863
    167       0.00000           0.083703            2.27767
    168       0.00000           0.084466            2.29844
    169       0.00000           0.087909            2.39212
    170       0.00000           0.091821            2.49858
    171       0.00000           0.093125            2.53406
    172       0.00000           0.094633            2.57511
    173       0.00000           0.099389            2.70451
    174       0.00000           0.100856            2.74444
    175       0.00000           0.106158            2.88871
    176       0.00000           0.107658            2.92954
    177       0.00000           0.108558            2.95401
    178       0.00000           0.111091            3.02293
    179       0.00000           0.114241            3.10865
    180       0.00000           0.116746            3.17683
    181       0.00000           0.121273            3.30001
    182       0.00000           0.122878            3.34367
    183       0.00000           0.124375            3.38441
    184       0.00000           0.126520            3.44278
    185       0.00000           0.128128            3.48655
    186       0.00000           0.136424            3.71229
    187       0.00000           0.138884            3.77923
    188       0.00000           0.140105            3.81245
    189       0.00000           0.144260            3.92552
    190       0.00000           0.145440            3.95763
    191       0.00000           0.147796            4.02174
    192       0.00000           0.149281            4.06214
    193       0.00000           0.150007            4.08189
    194       0.00000           0.154269            4.19788
    195       0.00000           0.159115            4.32973
    196       0.00000           0.161002            4.38110
    197       0.00000           0.163039            4.43651
    198       0.00000           0.164346            4.47209
    199       0.00000           0.168112            4.57456
    200       0.00000           0.168943            4.59717
    201       0.00000           0.172738            4.70044
    202       0.00000           0.174606            4.75128
    203       0.00000           0.177268            4.82370
    204       0.00000           0.178704            4.86277
    205       0.00000           0.179260            4.87793
    206       0.00000           0.185592            5.05021
    207       0.00000           0.186676            5.07972
    208       0.00000           0.188381            5.12610
    209       0.00000           0.191186            5.20243
    210       0.00000           0.198508            5.40167
    211       0.00000           0.203681            5.54243
    212       0.00000           0.205828            5.60086
    213       0.00000           0.206521            5.61972
    214       0.00000           0.208700            5.67901
    215       0.00000           0.212234            5.77519
    216       0.00000           0.214924            5.84838
    217       0.00000           0.216798            5.89937
    218       0.00000           0.221498            6.02727
    219       0.00000           0.223122            6.07146
    220       0.00000           0.224931            6.12069
    221       0.00000           0.228546            6.21905
    222       0.00000           0.231060            6.28745
    223       0.00000           0.234154            6.37167
    224       0.00000           0.237357            6.45881
    225       0.00000           0.238700            6.49536
    226       0.00000           0.241095            6.56053
    227       0.00000           0.250579            6.81859
    228       0.00000           0.253705            6.90368
    229       0.00000           0.258871            7.04425
    230       0.00000           0.260666            7.09309
    231       0.00000           0.267304            7.27372
    232       0.00000           0.269278            7.32744

  Highest occupied state (VBM) at     -9.73603671 eV
  | Occupation number:      2.00000000

  Lowest unoccupied state (CBM) at    -6.88360579 eV
  | Occupation number:      0.00000000

  Overall HOMO-LUMO gap:      2.85243092 eV.
  Calculating total energy contributions from superposition of free atom densities.

  Total energy components:
  | Sum of eigenvalues            :        -746.45398683 Ha      -20312.04644709 eV
  | XC energy correction          :        -176.65848910 Ha       -4807.12207197 eV
  | XC potential correction       :         226.91802645 Ha        6174.75366774 eV
  | Free-atom electrostatic energy:        -536.30510285 Ha      -14593.60436299 eV
  | Hartree energy correction     :           0.00000000 Ha           0.00000000 eV
  | Entropy correction            :           0.00000000 Ha           0.00000000 eV
  | ---------------------------
  | Total energy                  :       -1232.49955232 Ha      -33538.01921431 eV
  | Total energy, T -> 0          :       -1232.49955232 Ha      -33538.01921431 eV  <-- do not rely on this value for anything but (periodic) metals
  | Electronic free energy        :       -1232.49955232 Ha      -33538.01921431 eV

  Derived energy quantities:
  | Kinetic energy                :        1220.85368312 Ha       33221.11898970 eV
  | Electrostatic energy          :       -2276.69474635 Ha      -61952.01613204 eV
  | Energy correction for multipole
  | error in Hartree potential    :           0.00000000 Ha           0.00000000 eV
  | Sum of eigenvalues per atom                           :        -390.61627783 eV
  | Total energy (T->0) per atom                          :        -644.96190797 eV  <-- do not rely on this value for anything but (periodic) metals
  | Electronic free energy per atom                       :        -644.96190797 eV
  Initialize hartree_potential_storage
  Max. number of atoms included in rho_multipole:           52

  End scf initialization - timings             :  max(cpu_time)    wall_clock(cpu1)
  | Time for scf. initialization               :        8.998 s           9.054 s
  | Boundary condition initialization          :        0.000 s           0.004 s
  | Integration                                :        6.918 s           6.924 s
  | Solution of K.-S. eqns.                    :        0.253 s           0.269 s
  | Grid partitioning                          :        0.805 s           0.808 s
  | Preloading free-atom quantities on grid    :        0.014 s           0.017 s
  | Free-atom superposition energy             :        0.074 s           0.074 s
  | Total energy evaluation                    :        0.001 s           0.005 s

  Partial memory accounting:
  | Current value for overall tracked memory usage on task 0  :           4.957 MB
  | Peak value for overall tracked memory usage on task 0     :          30.802 MB after allocating zora_vector2
  | Largest tracked array allocation on task 0 so far         :           8.770 MB  when allocating hamiltonian_shell
  Note:  These values currently only include a subset of arrays which are explicitly tracked.
  The "true" memory usage will be greater.
------------------------------------------------------------

------------------------------------------------------------
          Begin self-consistency iteration #    1

  Date     :  20210620, Time     :  171141.502
------------------------------------------------------------
  Evaluating new KS density.
  Integration grid: deviation in total charge (<rho> - N_e) =   0.000000E+00
  Pulay mixing of updated and previous charge densities.

  Evaluating partitioned Hartree potential by multipole expansion.
  | Analytical far-field extrapolation by fixed multipoles:
  | Hartree multipole sum: apparent total charge =   0.740244E-04
  Summing up the Hartree potential with load balancing.
  Time summed over all CPUs for potential: real work       28.739 s, elapsed       52.161 s
  | RMS charge density error from multipole expansion :   0.136126E-01

  Start compute_balanced_batch_distribution
  Done load balancing, time needed:      0.008 s
  Integrating Hamiltonian matrix: batch-based integration with load balancing
  Time summed over all CPUs for integration: real work      184.059 s, elapsed      205.752 s
  Time get_set_full_local_matrix_scalapack:     0.019348 s
  Start compute_balanced_batch_distribution
  Done load balancing, time needed:      0.008 s

  Updating Kohn-Sham eigenvalues and eigenvectors using ELSI and the ELPA eigensolver.
  Finished transformation to standard eigenproblem
  | Time :     0.018 s
  Starting ELPA eigensolver
  Finished solving standard eigenproblem
  | Time :     0.096 s
  Finished back-transformation of eigenvectors
  | Time :     0.004 s

  Obtaining occupation numbers and chemical potential using ELSI.
  | Chemical potential (Fermi level):    -3.78431632 eV
  Writing Kohn-Sham eigenvalues.

  State    Occupation    Eigenvalue [Ha]    Eigenvalue [eV]
      1       2.00000          -9.991341         -271.87821
      2       2.00000          -9.990606         -271.85822
      3       2.00000          -9.984149         -271.68251
      4       2.00000          -9.983804         -271.67312
      5       2.00000          -9.983487         -271.66450
      6       2.00000          -9.982874         -271.64782
      7       2.00000          -9.982139         -271.62782
      8       2.00000          -9.981573         -271.61242
      9       2.00000          -9.981085         -271.59914
     10       2.00000          -9.980433         -271.58141
     11       2.00000          -9.969649         -271.28796
     12       2.00000          -9.969502         -271.28396
     13       2.00000          -9.949211         -270.73182
     14       2.00000          -9.948890         -270.72308
     15       2.00000          -9.948700         -270.71790
     16       2.00000          -9.948611         -270.71548
     17       2.00000          -9.945105         -270.62006
     18       2.00000          -9.943879         -270.58671
     19       2.00000          -9.943858         -270.58615
     20       2.00000          -9.943849         -270.58591
     21       2.00000          -9.943461         -270.57535
     22       2.00000          -9.943362         -270.57266
     23       2.00000          -9.942498         -270.54915
     24       2.00000          -9.941378         -270.51866
     25       2.00000          -9.941176         -270.51317
     26       2.00000          -9.941073         -270.51036
     27       2.00000          -9.939607         -270.47048
     28       2.00000          -9.938879         -270.45066
     29       2.00000          -9.938214         -270.43257
     30       2.00000          -9.937755         -270.42007
     31       2.00000          -9.937714         -270.41896
     32       2.00000          -9.937238         -270.40599
     33       2.00000          -0.881363          -23.98310
     34       2.00000          -0.853417          -23.22265
     35       2.00000          -0.839886          -22.85445
     36       2.00000          -0.834016          -22.69472
     37       2.00000          -0.831006          -22.61284
     38       2.00000          -0.805193          -21.91042
     39       2.00000          -0.778540          -21.18515
     40       2.00000          -0.771945          -21.00568
     41       2.00000          -0.756988          -20.59868
     42       2.00000          -0.746527          -20.31404
     43       2.00000          -0.730984          -19.89108
     44       2.00000          -0.729631          -19.85428
     45       2.00000          -0.722115          -19.64976
     46       2.00000          -0.717595          -19.52674
     47       2.00000          -0.713761          -19.42244
     48       2.00000          -0.702455          -19.11477
     49       2.00000          -0.639701          -17.40715
     50       2.00000          -0.638177          -17.36569
     51       2.00000          -0.633315          -17.23338
     52       2.00000          -0.627246          -17.06822
     53       2.00000          -0.605458          -16.47535
     54       2.00000          -0.604149          -16.43972
     55       2.00000          -0.601202          -16.35955
     56       2.00000          -0.591419          -16.09333
     57       2.00000          -0.580241          -15.78915
     58       2.00000          -0.560032          -15.23924
     59       2.00000          -0.552660          -15.03865
     60       2.00000          -0.545739          -14.85032
     61       2.00000          -0.531534          -14.46377
     62       2.00000          -0.513917          -13.98440
     63       2.00000          -0.508598          -13.83967
     64       2.00000          -0.507505          -13.80990
     65       2.00000          -0.487293          -13.25993
     66       2.00000          -0.484839          -13.19315
     67       2.00000          -0.473522          -12.88518
     68       2.00000          -0.469225          -12.76825
     69       2.00000          -0.468123          -12.73829
     70       2.00000          -0.461788          -12.56589
     71       2.00000          -0.455954          -12.40714
     72       2.00000          -0.451695          -12.29124
     73       2.00000          -0.450966          -12.27141
     74       2.00000          -0.444222          -12.08789
     75       2.00000          -0.438022          -11.91918
     76       2.00000          -0.434322          -11.81851
     77       2.00000          -0.430342          -11.71021
     78       2.00000          -0.428705          -11.66565
     79       2.00000          -0.428010          -11.64676
     80       2.00000          -0.422603          -11.49962
     81       2.00000          -0.416756          -11.34052
     82       2.00000          -0.394741          -10.74146
     83       2.00000          -0.387722          -10.55044
     84       2.00000          -0.386062          -10.50528
     85       2.00000          -0.383303          -10.43020
     86       2.00000          -0.382097          -10.39739
     87       2.00000          -0.375981          -10.23096
     88       2.00000          -0.373338          -10.15905
     89       2.00000          -0.368567          -10.02922
     90       2.00000          -0.364449           -9.91717
     91       2.00000          -0.363699           -9.89676
     92       2.00000          -0.362512           -9.86445
     93       2.00000          -0.360415           -9.80739
     94       2.00000          -0.345550           -9.40291
     95       2.00000          -0.339092           -9.22715
     96       2.00000          -0.331556           -9.02209
     97       2.00000          -0.312010           -8.49021
     98       2.00000          -0.307996           -8.38100
     99       2.00000          -0.281441           -7.65839
    100       2.00000          -0.278235           -7.57115
    101       2.00000          -0.271515           -7.38829
    102       2.00000          -0.270410           -7.35824
    103       2.00000          -0.268411           -7.30383
    104       2.00000          -0.261144           -7.10609
    105       2.00000          -0.249223           -6.78171
    106       2.00000          -0.232837           -6.33581
    107       0.00000          -0.131277           -3.57222
    108       0.00000          -0.115914           -3.15417
    109       0.00000          -0.102296           -2.78362
    110       0.00000          -0.099316           -2.70253
    111       0.00000          -0.082478           -2.24433
    112       0.00000          -0.081876           -2.22797
    113       0.00000          -0.077947           -2.12106
    114       0.00000          -0.076922           -2.09316
    115       0.00000          -0.050471           -1.37339
    116       0.00000          -0.037071           -1.00876
    117       0.00000          -0.030053           -0.81779
    118       0.00000          -0.026213           -0.71330
    119       0.00000          -0.022586           -0.61459
    120       0.00000          -0.019797           -0.53870
    121       0.00000          -0.015312           -0.41665
    122       0.00000          -0.008313           -0.22621
    123       0.00000          -0.005347           -0.14550
    124       0.00000           0.002500            0.06803
    125       0.00000           0.004250            0.11565
    126       0.00000           0.011020            0.29986
    127       0.00000           0.013114            0.35686
    128       0.00000           0.020594            0.56040
    129       0.00000           0.027449            0.74693
    130       0.00000           0.031664            0.86162
    131       0.00000           0.032302            0.87899
    132       0.00000           0.038849            1.05713
    133       0.00000           0.047714            1.29835
    134       0.00000           0.048570            1.32166
    135       0.00000           0.050313            1.36909
    136       0.00000           0.052994            1.44203
    137       0.00000           0.056849            1.54694
    138       0.00000           0.059850            1.62859
    139       0.00000           0.062791            1.70863
    140       0.00000           0.066889            1.82013
    141       0.00000           0.069761            1.89830
    142       0.00000           0.078199            2.12790
    143       0.00000           0.082821            2.25367
    144       0.00000           0.089785            2.44317
    145       0.00000           0.095814            2.60723
    146       0.00000           0.100463            2.73374
    147       0.00000           0.101957            2.77440
    148       0.00000           0.108230            2.94508
    149       0.00000           0.110308            3.00163
    150       0.00000           0.113064            3.07663
    151       0.00000           0.116498            3.17006
    152       0.00000           0.117471            3.19656
    153       0.00000           0.120753            3.28585
    154       0.00000           0.123628            3.36408
    155       0.00000           0.127679            3.47433
    156       0.00000           0.131783            3.58600
    157       0.00000           0.132555            3.60701
    158       0.00000           0.135224            3.67963
    159       0.00000           0.136133            3.70437
    160       0.00000           0.138170            3.75981
    161       0.00000           0.142302            3.87223
    162       0.00000           0.143668            3.90941
    163       0.00000           0.144591            3.93453
    164       0.00000           0.146708            3.99213
    165       0.00000           0.147396            4.01085
    166       0.00000           0.151290            4.11681
    167       0.00000           0.154708            4.20982
    168       0.00000           0.157118            4.27539
    169       0.00000           0.159484            4.33978
    170       0.00000           0.163790            4.45695
    171       0.00000           0.164226            4.46882
    172       0.00000           0.170650            4.64362
    173       0.00000           0.172332            4.68940
    174       0.00000           0.173064            4.70931
    175       0.00000           0.176930            4.81451
    176       0.00000           0.181699            4.94427
    177       0.00000           0.182778            4.97365
    178       0.00000           0.185265            5.04132
    179       0.00000           0.189195            5.14826
    180       0.00000           0.190194            5.17543
    181       0.00000           0.190831            5.19278
    182       0.00000           0.195012            5.30654
    183       0.00000           0.197279            5.36823
    184       0.00000           0.200097            5.44492
    185       0.00000           0.202186            5.50176
    186       0.00000           0.207789            5.65424
    187       0.00000           0.209914            5.71206
    188       0.00000           0.212129            5.77233
    189       0.00000           0.213176            5.80082
    190       0.00000           0.214057            5.82479
    191       0.00000           0.219310            5.96772
    192       0.00000           0.220221            5.99251
    193       0.00000           0.223009            6.06839
    194       0.00000           0.225890            6.14678
    195       0.00000           0.228486            6.21742
    196       0.00000           0.229183            6.23637
    197       0.00000           0.233803            6.36211
    198       0.00000           0.234677            6.38588
    199       0.00000           0.239171            6.50819
    200       0.00000           0.239482            6.51665
    201       0.00000           0.248089            6.75085
    202       0.00000           0.249404            6.78662
    203       0.00000           0.249913            6.80048
    204       0.00000           0.252202            6.86275
    205       0.00000           0.254678            6.93015
    206       0.00000           0.258721            7.04016
    207       0.00000           0.261962            7.12835
[...]
     62       2.00000          -0.455430          -12.39289
     63       2.00000          -0.449071          -12.21983
     64       2.00000          -0.446140          -12.14009
     65       2.00000          -0.427011          -11.61955
     66       2.00000          -0.422676          -11.50159
     67       2.00000          -0.414036          -11.26649
     68       2.00000          -0.409866          -11.15302
     69       2.00000          -0.408013          -11.10260
     70       2.00000          -0.403063          -10.96791
     71       2.00000          -0.394744          -10.74152
     72       2.00000          -0.390752          -10.63290
     73       2.00000          -0.389339          -10.59446
     74       2.00000          -0.383805          -10.44387
     75       2.00000          -0.378698          -10.30490
     76       2.00000          -0.376903          -10.25606
     77       2.00000          -0.374620          -10.19392
     78       2.00000          -0.373353          -10.15945
     79       2.00000          -0.372654          -10.14043
     80       2.00000          -0.367294           -9.99457
     81       2.00000          -0.356935           -9.71270
     82       2.00000          -0.339917           -9.24962
     83       2.00000          -0.337924           -9.19539
     84       2.00000          -0.335967           -9.14214
     85       2.00000          -0.333022           -9.06199
     86       2.00000          -0.327560           -8.91337
     87       2.00000          -0.322901           -8.78659
     88       2.00000          -0.321862           -8.75832
     89       2.00000          -0.318036           -8.65421
     90       2.00000          -0.306744           -8.34692
     91       2.00000          -0.304053           -8.27369
     92       2.00000          -0.303324           -8.25387
     93       2.00000          -0.301408           -8.20173
     94       2.00000          -0.286227           -7.78862
     95       2.00000          -0.280507           -7.63298
     96       2.00000          -0.274650           -7.47361
     97       2.00000          -0.269775           -7.34094
     98       2.00000          -0.264161           -7.18820
     99       2.00000          -0.238975           -6.50284
    100       2.00000          -0.237427           -6.46072
    101       2.00000          -0.233330           -6.34922
    102       2.00000          -0.230664           -6.27669
    103       2.00000          -0.227124           -6.18037
    104       2.00000          -0.219956           -5.98531
    105       2.00000          -0.205530           -5.59276
    106       2.00000          -0.187608           -5.10508
    107       0.00000          -0.085395           -2.32372
    108       0.00000          -0.071799           -1.95375
    109       0.00000          -0.059095           -1.60805
    110       0.00000          -0.055866           -1.52019
    111       0.00000          -0.042650           -1.16056
    112       0.00000          -0.040202           -1.09395
    113       0.00000          -0.038281           -1.04169
    114       0.00000          -0.037338           -1.01601
    115       0.00000          -0.009905           -0.26952
    116       0.00000          -0.004815           -0.13101
    117       0.00000          -0.002874           -0.07821
    118       0.00000           0.000072            0.00196
    119       0.00000           0.007091            0.19296
    120       0.00000           0.007380            0.20082
    121       0.00000           0.012782            0.34780
    122       0.00000           0.013622            0.37068
    123       0.00000           0.021423            0.58294
    124       0.00000           0.025570            0.69580
    125       0.00000           0.026979            0.73413
    126       0.00000           0.031033            0.84445
    127       0.00000           0.035748            0.97274
    128       0.00000           0.040491            1.10182
    129       0.00000           0.047101            1.28169
    130       0.00000           0.052010            1.41526
    131       0.00000           0.052827            1.43750
    132       0.00000           0.060204            1.63823
    133       0.00000           0.069635            1.89487
    134       0.00000           0.071297            1.94009
    135       0.00000           0.073957            2.01247
    136       0.00000           0.085575            2.32862
    137       0.00000           0.092513            2.51741
    138       0.00000           0.094622            2.57479
    139       0.00000           0.095840            2.60795
    140       0.00000           0.102409            2.78669
    141       0.00000           0.103267            2.81003
    142       0.00000           0.108169            2.94342
    143       0.00000           0.110330            3.00224
    144       0.00000           0.115031            3.13014
    145       0.00000           0.119272            3.24555
    146       0.00000           0.123621            3.36389
    147       0.00000           0.134287            3.65414
    148       0.00000           0.135693            3.69240
    149       0.00000           0.138285            3.76293
    150       0.00000           0.142486            3.87724
    151       0.00000           0.143361            3.90104
    152       0.00000           0.145073            3.94764
    153       0.00000           0.147123            4.00343
    154       0.00000           0.151799            4.13065
    155       0.00000           0.153992            4.19035
    156       0.00000           0.158861            4.32281
    157       0.00000           0.163011            4.43574
    158       0.00000           0.165112            4.49294
    159       0.00000           0.170227            4.63211
    160       0.00000           0.171181            4.65808
    161       0.00000           0.172513            4.69432
    162       0.00000           0.179951            4.89672
    163       0.00000           0.180941            4.92364
    164       0.00000           0.182563            4.96781
    165       0.00000           0.184637            5.02422
    166       0.00000           0.188490            5.12908
    167       0.00000           0.190681            5.18870
    168       0.00000           0.191363            5.20726
    169       0.00000           0.192554            5.23966
    170       0.00000           0.194639            5.29641
    171       0.00000           0.196518            5.34753
    172       0.00000           0.199863            5.43856
    173       0.00000           0.201601            5.48585
    174       0.00000           0.205041            5.57945
    175       0.00000           0.207817            5.65498
    176       0.00000           0.209665            5.70528
    177       0.00000           0.213022            5.79662
    178       0.00000           0.221367            6.02369
    179       0.00000           0.221676            6.03212
    180       0.00000           0.224151            6.09945
    181       0.00000           0.225494            6.13601
    182       0.00000           0.229847            6.25446
    183       0.00000           0.230940            6.28421
    184       0.00000           0.233081            6.34246
    185       0.00000           0.235624            6.41165
    186       0.00000           0.241265            6.56515
    187       0.00000           0.241322            6.56670
    188       0.00000           0.242218            6.59109
    189       0.00000           0.245112            6.66985
    190       0.00000           0.247359            6.73099
    191       0.00000           0.248524            6.76267
    192       0.00000           0.249698            6.79463
    193       0.00000           0.251348            6.83952
    194       0.00000           0.256953            6.99205
    195       0.00000           0.261054            7.10364
    196       0.00000           0.262315            7.13795
    197       0.00000           0.262595            7.14556
    198       0.00000           0.264084            7.18610
    199       0.00000           0.270041            7.34818
    200       0.00000           0.271956            7.40031
    201       0.00000           0.278758            7.58540
    202       0.00000           0.280723            7.63886
    203       0.00000           0.285467            7.76796
    204       0.00000           0.289256            7.87107
    205       0.00000           0.292829            7.96828
    206       0.00000           0.294056            8.00167
    207       0.00000           0.295456            8.03976
    208       0.00000           0.299011            8.13650
    209       0.00000           0.302500            8.23144
    210       0.00000           0.305135            8.30316
    211       0.00000           0.308155            8.38532
    212       0.00000           0.312841            8.51283
    213       0.00000           0.316231            8.60510
    214       0.00000           0.319152            8.68457
    215       0.00000           0.322286            8.76985
    216       0.00000           0.327570            8.91364
    217       0.00000           0.329526            8.96687
    218       0.00000           0.333443            9.07344
    219       0.00000           0.337267            9.17751
    220       0.00000           0.338093            9.19997
    221       0.00000           0.345136            9.39162
    222       0.00000           0.348578            9.48529
    223       0.00000           0.350454            9.53633
    224       0.00000           0.352928            9.60367
    225       0.00000           0.355777            9.68117
    226       0.00000           0.358837            9.76446
    227       0.00000           0.362485            9.86372
    228       0.00000           0.367596           10.00281
    229       0.00000           0.372489           10.13595
    230       0.00000           0.372977           10.14923
    231       0.00000           0.376062           10.23317
    232       0.00000           0.379891           10.33736

  Highest occupied state (VBM) at     -5.10508312 eV
  | Occupation number:      2.00000000

  Lowest unoccupied state (CBM) at    -2.32371584 eV
  | Occupation number:      0.00000000

  Overall HOMO-LUMO gap:      2.78136728 eV.

  Total energy components:
  | Sum of eigenvalues            :        -700.48459789 Ha      -19061.15572964 eV
  | XC energy correction          :        -179.98771487 Ha       -4897.71491462 eV
  | XC potential correction       :         231.21891420 Ha        6291.78677809 eV
  | Free-atom electrostatic energy:        -536.30510285 Ha      -14593.60436299 eV
  | Hartree energy correction     :         -45.41116013 Ha       -1235.70053890 eV
  | Entropy correction            :           0.00000000 Ha           0.00000000 eV
  | ---------------------------
  | Total energy                  :       -1230.96966154 Ha      -33496.38876806 eV
  | Total energy, T -> 0          :       -1230.96966154 Ha      -33496.38876806 eV  <-- do not rely on this value for anything but (periodic) metals
  | Electronic free energy        :       -1230.96966154 Ha      -33496.38876806 eV

  Derived energy quantities:
  | Kinetic energy                :        1227.76821573 Ha       33409.27299520 eV
  | Electrostatic energy          :       -2278.75016241 Ha      -62007.94684864 eV
  | Energy correction for multipole
  | error in Hartree potential    :          -0.14701729 Ha          -4.00054411 eV
  | Sum of eigenvalues per atom                           :        -366.56068711 eV
  | Total energy (T->0) per atom                          :        -644.16132246 eV  <-- do not rely on this value for anything but (periodic) metals
  | Electronic free energy per atom                       :        -644.16132246 eV
  End evaluation of scaled ZORA corrections.
  | Time for scaled ZORA corrections           :        6.467 s           6.478 s
------------------------------------------------------------

  Energy and forces in a compact form:
  | Total energy uncorrected      :         -0.334963887680592E+05 eV
  | Total energy corrected        :         -0.334963887680592E+05 eV  <-- do not rely on this value for anything but (periodic) metals
  | Electronic free energy        :         -0.334963887680592E+05 eV

  ------------------------------------ 
  Start decomposition of the XC Energy 
  ------------------------------------ 
  X and C from original XC functional choice 
  Hartree-Fock Energy :          0.000000000 Ha              0.000000000 eV
  X Energy            :       -172.883473845 Ha          -4704.398680490 eV
  C Energy            :         -7.104241026 Ha           -193.316234128 eV
  Total XC Energy     :       -179.987714871 Ha          -4897.714914619 eV
  ------------------------------------ 
  LDA X and C from self-consistent density 
  X Energy LDA        :       -156.582727120 Ha          -4260.832793711 eV
  C Energy LDA        :        -13.681577443 Ha           -372.294664356 eV
  ------------------------------------ 
  End decomposition of the XC Energy 
  ------------------------------------ 

------------------------------------------------------------

------------------------------------------------------------------------------
  Final output of selected total energy values:

  The following output summarizes some interesting total energy values
  at the end of a run (AFTER all relaxation, molecular dynamics, etc.).

  | Total energy of the DFT / Hartree-Fock s.c.f. calculation      :         -33496.388768059 eV
  | Final zero-broadening corrected energy (caution - metals only) :         -33496.388768059 eV
  | For reference only, the value of 1 Hartree used in FHI-aims is :             27.211384500 eV

  Before relying on these values, please be sure to understand exactly which
  total energy value is referred to by a given number. Different objects may
  all carry the same name 'total energy'. Definitions:

  Total energy of the DFT / Hartree-Fock s.c.f. calculation:
  | Note that this energy does not include ANY quantities calculated after the
  | s.c.f. cycle, in particular not ANY RPA, MP2, etc. many-body perturbation terms.
  | Scalar relativistic effects have been included in the 'scaled ZORA' approximation.

  Final zero-broadening corrected energy:
  | For metallic systems only, a broadening of the occupation numbers at the Fermi
  | level can be extrapolated back to zero broadening by an electron-gas inspired
  | formula. For all systems that are not real metals, this value can be
  | meaningless and should be avoided.

------------------------------------------------------------------------------
  Methods described in the following list of references were used in this FHI-aims run.
  If you publish the results, please make sure to cite these reference if they apply.
  FHI-aims is an academic code, and for our developers (often, Ph.D. students
  and postdocs), scientific credit in the community is essential.
  Thank you for helping us!

  For any use of FHI-aims, please cite:

    Volker Blum, Ralf Gehrke, Felix Hanke, Paula Havu, Ville Havu,
    Xinguo Ren, Karsten Reuter, and Matthias Scheffler
    'Ab initio molecular simulations with numeric atom-centered orbitals'
    Computer Physics Communications 180, 2175-2196 (2009)
    http://dx.doi.org/10.1016/j.cpc.2009.06.022


  The scalable eigensolver library ELPA was used in your run.
  ELPA is essential especially for large systems on hundreds or thousands of CPUs.
  For ELPA, please cite:

    Andreas Marek, Volker Blum, Rainer Johanni, Ville Havu, Bruno Lang,
    Thomas Auckenthaler, Alexander Heinecke, Hans-Joachim Bungartz, and Hermann Lederer,
    'The ELPA Library - Scalable Parallel Eigenvalue Solutions
    for Electronic Structure Theory and Computational Science'
    The Journal of Physics: Condensed Matter 26, 213201 (2014).
    http://dx.doi.org/10.1088/0953-8984/26/21/213201


  The ELSI infrastructure was used in your run to solve the Kohn-Sham electronic structure.
  Please check out http://elsi-interchange.org to learn more.
  If scalability is important for your project, please acknowledge ELSI by citing:

    V. W-z. Yu, F. Corsetti, A. Garcia, W. P. Huhn, M. Jacquelin, W. Jia,
    B. Lange, L. Lin, J. Lu, W. Mi, A. Seifitokaldani, A. Vazquez-Mayagoitia,
    C. Yang, H. Yang, and V. Blum
    'ELSI: A unified software interface for Kohn-Sham electronic structure solvers'
    Computer Physics Communications 222, 267-285 (2018).
    http://dx.doi.org/10.1016/j.cpc.2017.09.007


  For the real-space grid partitioning and parallelization used in this calculation, please cite:

    Ville Havu, Volker Blum, Paula Havu, and Matthias Scheffler,
    'Efficient O(N) integration for all-electron electronic structure calculation'
    'using numerically tabulated basis functions'
    Journal of Computational Physics 228, 8367-8379 (2009).
    http://dx.doi.org/10.1016/j.jcp.2009.08.008

  Of course, there are many other important community references, e.g., those cited in the
  above references. Our list is limited to references that describe implementations in the
  FHI-aims code. The reason is purely practical (length of this list) - please credit others as well.

------------------------------------------------------------
          Leaving FHI-aims.
          Date     :  20210620, Time     :  171326.066

          Computational steps:
          | Number of self-consistency cycles          :           17
          | Number of SCF (re)initializations          :            1

          Detailed time accounting                     :  max(cpu_time)    wall_clock(cpu1)
          | Total time                                 :      113.808 s         113.992 s
          | Preparation time                           :        0.195 s           0.181 s
          | Boundary condition initalization           :        0.000 s           0.004 s
          | Grid partitioning                          :        0.805 s           0.808 s
          | Preloading free-atom quantities on grid    :        0.014 s           0.017 s
          | Free-atom superposition energy             :        0.074 s           0.074 s
          | Total time for integrations                :       65.696 s          65.706 s
          | Total time for solution of K.-S. equations :        3.126 s           3.148 s
          | Total time for density update              :       25.452 s          25.404 s
          | Total time for mixing                      :        0.143 s           0.146 s
          | Total time for Hartree multipole update    :        0.160 s           0.165 s
          | Total time for Hartree multipole sum       :       10.483 s          10.489 s
          | Total time for total energy evaluation     :        0.009 s           0.033 s
          | Total time for scaled ZORA corrections     :        6.467 s           6.478 s

          Partial memory accounting:
          | Residual value for overall tracked memory usage across tasks :     0.000000 MB (should be 0.000000 MB)
          | Peak values for overall tracked memory usage (after allocating zora_vector2):
          |   Minimum:       29.894 MB (on task 34)
          |   Maximum:       37.963 MB (on task 44)
          |   Average:       33.737 MB
          | Largest tracked array allocation (hamiltonian_shell):
          |   Minimum:        8.770 MB (on task  1)
          |   Maximum:        8.770 MB (on task  1)
          |   Average:        8.770 MB
          Note:  These values currently only include a subset of arrays which are explicitly tracked.
          The "true" memory usage will be greater.

          Have a nice day.
------------------------------------------------------------
