  MPI-parallelism will be employed.
------------------------------------------------------------
          Invoking FHI-aims ...
          Version 180607
          Git rev. (modified): 6724847 Fix JSON memory corruption in scf_solver
          Compiled on 2018/06/27 at 16:00:31 on host coe.psc.edu.

          When using FHI-aims, please cite the following reference:

          Volker Blum, Ralf Gehrke, Felix Hanke, Paula Havu,
          Ville Havu, Xinguo Ren, Karsten Reuter, and Matthias Scheffler,
          'Ab Initio Molecular Simulations with Numeric Atom-Centered Orbitals',
          Computer Physics Communications 180, 2175-2196 (2009)

          For any questions about FHI-aims, please visit the aimsclub website
          with its forums and wiki. Contributions to both the forums and the
          wiki are warmly encouraged - they are for you, and everyone is welcome there.

------------------------------------------------------------



  Date     :  20210620, Time     :  174547.837
  Time zero on CPU 1             :   0.291883000000000E+00  s.
  Internal wall clock time zero  :           393443147.837  s.

  FHI-aims created a unique identifier for this run for later identification
  aims_uuid : 0AD35C34-BBFE-46BD-AAB1-82496DA384A4

  Using       56 parallel tasks.
  Task        0 on host f001 reporting.
  Task        1 on host f001 reporting.
  Task        2 on host f001 reporting.
  Task        3 on host f001 reporting.
  Task        4 on host f001 reporting.
  Task        5 on host f001 reporting.
  Task        6 on host f001 reporting.
  Task        7 on host f001 reporting.
  Task        8 on host f001 reporting.
  Task        9 on host f001 reporting.
  Task       10 on host f001 reporting.
  Task       11 on host f001 reporting.
  Task       12 on host f001 reporting.
  Task       13 on host f001 reporting.
  Task       14 on host f001 reporting.
  Task       15 on host f001 reporting.
  Task       16 on host f001 reporting.
  Task       17 on host f001 reporting.
  Task       18 on host f001 reporting.
  Task       19 on host f001 reporting.
  Task       20 on host f001 reporting.
  Task       21 on host f001 reporting.
  Task       22 on host f001 reporting.
  Task       23 on host f001 reporting.
  Task       24 on host f001 reporting.
  Task       25 on host f001 reporting.
  Task       26 on host f001 reporting.
  Task       27 on host f001 reporting.
  Task       28 on host f001 reporting.
  Task       29 on host f001 reporting.
  Task       30 on host f001 reporting.
  Task       31 on host f001 reporting.
  Task       32 on host f001 reporting.
  Task       33 on host f001 reporting.
  Task       34 on host f001 reporting.
  Task       35 on host f001 reporting.
  Task       36 on host f001 reporting.
  Task       37 on host f001 reporting.
  Task       38 on host f001 reporting.
  Task       39 on host f001 reporting.
  Task       40 on host f001 reporting.
  Task       41 on host f001 reporting.
  Task       42 on host f001 reporting.
  Task       43 on host f001 reporting.
  Task       44 on host f001 reporting.
  Task       45 on host f001 reporting.
  Task       46 on host f001 reporting.
  Task       47 on host f001 reporting.
  Task       48 on host f001 reporting.
  Task       49 on host f001 reporting.
  Task       50 on host f001 reporting.
  Task       51 on host f001 reporting.
  Task       52 on host f001 reporting.
  Task       53 on host f001 reporting.
  Task       54 on host f001 reporting.
  Task       55 on host f001 reporting.

  Performing system and environment tests:
  *** Environment variable OMP_NUM_THREADS is not set
  *** For performance reasons you might want to set it to 1
  | Stacksize not measured: no C compiler
  | Checking for scalapack...
  | Testing pdtran()...
  | All pdtran() tests passed.

  Obtaining array dimensions for all initial allocations:
  
  -----------------------------------------------------------------------
  Parsing control.in (first pass over file, find array dimensions only).
  The contents of control.in will be repeated verbatim below
  unless switched off by setting 'verbatim_writeout .false.' .
  in the first line of control.in .
  -----------------------------------------------------------------------
  
  #===============================================================================
  # FHI-aims file: ./Runs/es/control.in
  # Created using the Atomic Simulation Environment (ASE)
  # Mon Jan 13 16:04:38 2020
  #===============================================================================
  xc                                 pbe
  relativistic                       zora scalar 1e-12
  occupation_type                    gaussian 0.0001
  load_balancing                     .true.
  KS_method                          scalapack_fast
  mixer                              pulay
  n_max_pulay                        5
  charge_mix_param                   0.4
  sc_accuracy_etot                   1e-6
  sc_accuracy_eev                    1e-4
  sc_accuracy_rho                    1e-6
  sc_iter_limit                      100
  prodbas_threshold                  1e-4
  basis_threshold                    1e-5
  override_illconditioning           .true.
  use_logsbt                         .true.
  spin                               none
  charge                             0
  #===============================================================================
  
  ################################################################################
  #
  #  FHI-aims code project
  # Volker Blum, Fritz Haber Institute Berlin, 2009
  #
  #  Suggested "tight" defaults for H atom (to be pasted into control.in file)
  #
  ################################################################################
    species        H
  #     global species definitions
      nucleus             1
      mass                1.00794
  #
      l_hartree           6
  #
      cut_pot             4.0  2.0  1.0
      basis_dep_cutoff    1e-4
  #
      radial_base         24 7.0
      radial_multiplier   2
      angular_grids       specified
        division   0.1930   50
        division   0.3175  110
        division   0.4293  194
        division   0.5066  302
        division   0.5626  434
  #      division   0.5922  590
  #      division   0.6227  974
  #      division   0.6868 1202
  #      outer_grid  770
        outer_grid  434
  ################################################################################
  #
  #  Definition of "minimal" basis
  #
  ################################################################################
  #     valence basis states
      valence      1  s   1.
  #     ion occupancy
      ion_occ      1  s   0.5
  ################################################################################
  #
  #  Suggested additional basis functions. For production calculations,
  #  uncomment them one after another (the most important basis functions are
  #  listed first).
  #
  #  Basis constructed for dimers: 0.5 A, 0.7 A, 1.0 A, 1.5 A, 2.5 A
  #
  ################################################################################
  #  "First tier" - improvements: -1014.90 meV to -62.69 meV
       hydro 2 s 2.1
       hydro 2 p 3.5
  #  "Second tier" - improvements: -12.89 meV to -1.83 meV
       hydro 1 s 0.85
       hydro 2 p 3.7
       hydro 2 s 1.2
       hydro 3 d 7
  #  "Third tier" - improvements: -0.25 meV to -0.12 meV
  #     hydro 4 f 11.2
  #     hydro 3 p 4.8
  #     hydro 4 d 9
  #     hydro 3 s 3.2
  ################################################################################
  #
  # For methods that use the localized form of the "resolution of identity" for
  # the two-electron Coulomb operator (RI_method LVL), particularly Hartree-Fock and
  # hybrid density functional calculations, the highest accuracy can be obtained by
  # uncommenting the line beginning with "for_aux"  below, thus adding an extra g radial
  # function to the construction of the product basis set for the expansion.
  # See Ref. New J. Phys. 17, 093020 (2015) for more information, particularly Figs. 1 and 6.
  #
  ################################################################################
  #
  # for_aux hydro 5 g 6.0
  ################################################################################
  #
  #  FHI-aims code project
  # Volker Blum, Fritz Haber Institute Berlin, 2009
  #
  #  Suggested "tight" defaults for C atom (to be pasted into control.in file)
  #
  ################################################################################
    species        C
  #     global species definitions
      nucleus             6
      mass                12.0107
  #
      l_hartree           6
  #
      cut_pot             4.0  2.0  1.0
      basis_dep_cutoff    1e-4
  #
      radial_base         34 7.0
      radial_multiplier   2
      angular_grids specified
        division   0.2187   50
        division   0.4416  110
        division   0.6335  194
        division   0.7727  302
        division   0.8772  434
  #      division   0.9334  590
  #      division   0.9924  770
  #      division   1.0230  974
  #      division   1.5020 1202
  #     outer_grid  974
        outer_grid  434
  ################################################################################
  #
  #  Definition of "minimal" basis
  #
  ################################################################################
  #     valence basis states
      valence      2  s   2.
      valence      2  p   2.
  #     ion occupancy
      ion_occ      2  s   1.
      ion_occ      2  p   1.
  ################################################################################
  #
  #  Suggested additional basis functions. For production calculations,
  #  uncomment them one after another (the most important basis functions are
  #  listed first).
  #
  #  Constructed for dimers: 1.0 A, 1.25 A, 1.5 A, 2.0 A, 3.0 A
  #
  ################################################################################
  #  "First tier" - improvements: -1214.57 meV to -155.61 meV
       hydro 2 p 1.7
       hydro 3 d 6
       hydro 2 s 4.9
  #  "Second tier" - improvements: -67.75 meV to -5.23 meV
       hydro 4 f 9.8
       hydro 3 p 5.2
       hydro 3 s 4.3
       hydro 5 g 14.4
       hydro 3 d 6.2
  #  "Third tier" - improvements: -2.43 meV to -0.60 meV
  #     hydro 2 p 5.6
  #     hydro 2 s 1.4
  #     hydro 3 d 4.9
  #     hydro 4 f 11.2
  #  "Fourth tier" - improvements: -0.39 meV to -0.18 meV
  #     hydro 2 p 2.1
  #     hydro 5 g 16.4
  #     hydro 4 d 13.2
  #     hydro 3 s 13.6
  #     hydro 4 f 17.6
  #  Further basis functions - improvements: -0.08 meV and below
  #     hydro 3 s 2
  #     hydro 3 p 6
  #     hydro 4 d 20
  ################################################################################
  #
  # For methods that use the localized form of the "resolution of identity" for
  # the two-electron Coulomb operator (RI_method LVL), particularly Hartree-Fock and
  # hybrid density functional calculations, the highest accuracy can be obtained by
  # uncommenting the line beginning with "for_aux"  below, thus adding an extra g radial
  # function to the construction of the product basis set for the expansion.
  # See Ref. New J. Phys. 17, 093020 (2015) for more information, particularly Figs. 1 and 6.
  #
  ################################################################################
  #
  # for_aux hydro 5 g 6.0
  
  -----------------------------------------------------------------------
  Completed first pass over input file control.in .
  -----------------------------------------------------------------------
  
  
  -----------------------------------------------------------------------
  Parsing geometry.in (first pass over file, find array dimensions only).
  The contents of geometry.in will be repeated verbatim below
  unless switched off by setting 'verbatim_writeout .false.' .
  in the first line of geometry.in .
  -----------------------------------------------------------------------
  
  #=======================================================
  # FHI-aims file: geometry.in
  # Created using the Atomic Simulation Environment (ASE)
  # Sun Jun 20 15:47:02 2021
  #=======================================================
  atom 19.4906730000000010 28.1269990000000014 38.9906199999999998 H
  atom 19.2639910000000008 27.6299750000000017 39.9341909999999984 C
  atom 18.9195759999999993 26.2559269999999998 39.9419630000000012 C
  atom 19.3110520000000001 28.3191899999999990 41.1118710000000007 C
  atom 18.8049239999999998 25.4111179999999983 38.8118669999999995 C
  atom 18.6470920000000007 25.6905290000000015 41.1737290000000016 C
  atom 19.0660379999999989 27.7044840000000008 42.3679029999999983 C
  atom 19.5493069999999989 29.3821590000000015 41.0969610000000003 H
  atom 18.3749569999999984 24.1225370000000012 38.9695249999999973 C
  atom 19.0663780000000003 25.7928710000000017 37.8249959999999987 H
  atom 18.1508949999999984 24.3690770000000008 41.3548609999999996 C
  atom 18.7732649999999985 26.3655000000000008 42.4200859999999977 C
  atom 19.1140119999999989 28.3239020000000004 43.2578639999999979 H
  atom 18.3067220000000006 23.4654269999999983 38.1043080000000032 H
  atom 18.0022939999999991 23.6020639999999986 40.2319019999999981 C
  atom 17.9416490000000017 24.2167700000000004 42.8069360000000003 C
  atom 18.3883310000000009 25.3650969999999987 43.4554919999999996 C
  atom 17.6158889999999992 22.5876359999999998 40.2583899999999986 H
  atom 17.3153520000000007 23.1385700000000014 43.5270250000000019 C
  atom 18.3438930000000013 25.4604259999999982 44.8994769999999974 C
  atom 16.9701559999999994 21.9157329999999995 42.9166939999999997 C
  atom 17.0283720000000010 23.3281309999999991 44.8928160000000034 C
  atom 17.5186980000000005 24.5180959999999999 45.5835620000000006 C
  atom 19.0631279999999990 26.4159040000000012 45.6847560000000001 C
  atom 16.3646920000000016 20.9175210000000007 43.6339279999999974 C
  atom 17.2250060000000005 21.7401969999999984 41.8774810000000031 H
  atom 16.3623459999999987 22.2959519999999998 45.5799140000000023 C
  atom 17.2367400000000011 24.7284770000000016 46.9417400000000029 C
  atom 18.7709270000000004 26.5473919999999985 47.0212029999999999 C
  atom 20.2230200000000018 27.1971610000000013 45.1672110000000018 C
  atom 16.1585749999999990 19.9620430000000013 43.1523880000000020 H
  atom 16.0463659999999990 21.1114660000000001 44.9691070000000011 C
  atom 16.1125989999999994 22.4161539999999988 46.6314989999999980 H
  atom 16.5437809999999992 24.0650109999999984 47.4529399999999981 H
  atom 17.8102850000000004 25.7431240000000017 47.6459680000000034 C
  atom 19.3281670000000005 27.2686020000000013 47.6186870000000013 H
  atom 21.2366509999999984 26.5671150000000011 44.4580660000000023 C
  atom 20.3554770000000005 28.5547719999999998 45.4474749999999972 C
  atom 15.5600470000000008 20.3252780000000008 45.5450200000000009 H
  atom 17.5612180000000002 25.9056210000000000 48.6932699999999983 H
  atom 21.1602700000000006 25.5025019999999998 44.2374390000000020 H
  atom 22.3473669999999984 27.2738620000000012 44.0266469999999970 C
  atom 19.5685010000000013 29.0670269999999995 46.0011820000000000 H
  atom 21.4512670000000014 29.2604240000000004 45.0079670000000007 C
  atom 23.1426599999999993 26.7669759999999997 43.4827730000000017 H
  atom 22.4488009999999996 28.6248989999999992 44.2958080000000010 C
  atom 21.5322570000000013 30.3238309999999984 45.2330340000000035 H
  atom 23.3258709999999994 29.1760519999999985 43.9557479999999998 H
  
  -----------------------------------------------------------------------
  Completed first pass over input file geometry.in .
  -----------------------------------------------------------------------
  

  Basic array size parameters:
  | Number of species                 :        2
  | Number of atoms                   :       48
  | Max. basis fn. angular momentum   :        4
  | Max. atomic/ionic basis occupied n:        2
  | Max. number of basis fn. types    :        2
  | Max. radial fns per species/type  :        8
  | Max. logarithmic grid size        :     1277
  | Max. radial integration grid size :       69
  | Max. angular integration grid size:      434
  | Max. angular grid division number :        8
  | Radial grid for Hartree potential :     1277
  | Number of spin channels           :        1

------------------------------------------------------------
          Reading file control.in.
------------------------------------------------------------
  XC: Using PBE gradient-corrected functionals.
  Scalar relativistic treatment of kinetic energy: ZORA.
  Threshold value for ZORA:   0.100000E-11
  Occupation type: Gaussian broadening, width =   0.100000E-03 eV.
  Since 'load_balancing .true.' is present in control.in, automatically turning on 'use_local_index .true.'.
  Using load balancing for integrations.
  Kohn-Sham electronic structure solved by the ELSI library.
  Using pulay charge density mixing.
  Pulay mixing - number of memorized iterations:    5
  Charge density mixing - mixing parameter:     0.4000
  Convergence accuracy of total energy:  0.1000E-05
  Convergence accuracy of sum of eigenvalues:  0.1000E-03
  Convergence accuracy of self-consistent charge density:  0.1000E-05
  Maximum number of s.-c. iterations  :   100
  * Ignoring prodbas_threshold
  Threshold for basis singularities:  0.1000E-04
  override_illconditioning: Explicitly overriding any built-in checks for an ill-conditioned overlap matrix.
  *** WARNING: If you use this flag, you should really know what you are doing.
  *** DO NOT keep this flag set by default in all your control.in files.
  Using 1D integrations for auxiliary 2-center integrals.
  Spin treatment: No spin polarisation.
  Charge =   0.000000E+00: Neutral system requested explicitly.
 
  Reading configuration options for species H                   .
  | Found nuclear charge :   1.0000
  | Found atomic mass :    1.00794000000000      amu
  | Found l_max for Hartree potential  :   6
  | Found cutoff potl. onset [A], width [A], scale factor :    4.00000    2.00000    1.00000
  | Threshold for basis-dependent cutoff potential is   0.100000E-03
  | Found data for basic radial integration grid :    24 points, outermost radius =    7.000 A
  | Found multiplier for basic radial grid :   2
  | Found angular grid specification: user-specified.
  | Specified grid contains     6 separate shells.
  | Check grid settings after all constraints further below.
  | Found free-atom valence shell :  1 s   1.000
  | No ionic wave fns used. Skipping ion_occ.
  | Found hydrogenic basis function :  2 s   2.100
  | Found hydrogenic basis function :  2 p   3.500
  | Found hydrogenic basis function :  1 s   0.850
  | Found hydrogenic basis function :  2 p   3.700
  | Found hydrogenic basis function :  2 s   1.200
  | Found hydrogenic basis function :  3 d   7.000
  Species H                   : Missing cutoff potential type.
  Defaulting to exp(1/x)/(1-x)^2 type cutoff potential.
  Species H : No 'logarithmic' tag. Using default grid for free atom:
  | Default logarithmic grid data [bohr] : 0.1000E-03 0.1000E+03 0.1012E+01
  Species H : On-site basis accuracy parameter (for Gram-Schmidt orthonormalisation) not specified.
  Using default value basis_acc =  0.1000000E-03.
  Species H                   : Using default innermost maximum threshold i_radial=  2 for radial functions.
  Species H                   : Default cutoff onset for free atom density etc. : 0.40000000E+01 AA.
  Species H                   : Basic radial grid will be enhanced according to radial_multiplier =   2, to contain    49 grid points.
 
  Reading configuration options for species C                   .
  | Found nuclear charge :   6.0000
  | Found atomic mass :    12.0107000000000      amu
  | Found l_max for Hartree potential  :   6
  | Found cutoff potl. onset [A], width [A], scale factor :    4.00000    2.00000    1.00000
  | Threshold for basis-dependent cutoff potential is   0.100000E-03
  | Found data for basic radial integration grid :    34 points, outermost radius =    7.000 A
  | Found multiplier for basic radial grid :   2
  | Found angular grid specification: user-specified.
  | Specified grid contains     6 separate shells.
  | Check grid settings after all constraints further below.
  | Found free-atom valence shell :  2 s   2.000
  | Found free-atom valence shell :  2 p   2.000
  | No ionic wave fns used. Skipping ion_occ.
  | No ionic wave fns used. Skipping ion_occ.
  | Found hydrogenic basis function :  2 p   1.700
  | Found hydrogenic basis function :  3 d   6.000
  | Found hydrogenic basis function :  2 s   4.900
  | Found hydrogenic basis function :  4 f   9.800
  | Found hydrogenic basis function :  3 p   5.200
  | Found hydrogenic basis function :  3 s   4.300
  | Found hydrogenic basis function :  5 g  14.400
  | Found hydrogenic basis function :  3 d   6.200
  Species C                   : Missing cutoff potential type.
  Defaulting to exp(1/x)/(1-x)^2 type cutoff potential.
  Species C : No 'logarithmic' tag. Using default grid for free atom:
  | Default logarithmic grid data [bohr] : 0.1000E-03 0.1000E+03 0.1012E+01
  Species C : On-site basis accuracy parameter (for Gram-Schmidt orthonormalisation) not specified.
  Using default value basis_acc =  0.1000000E-03.
  Species C                   : Using default innermost maximum threshold i_radial=  2 for radial functions.
  Species C                   : Default cutoff onset for free atom density etc. : 0.40000000E+01 AA.
  Species C                   : Basic radial grid will be enhanced according to radial_multiplier =   2, to contain    69 grid points.
 
  Finished reading input file 'control.in'. Consistency checks are next.
 
  MPI_IN_PLACE appears to work with this MPI implementation.
  | Keeping use_mpi_in_place .true. (see manual).
  Target number of points in a grid batch is not set. Defaulting to  100
  Method for grid partitioning is not set. Defaulting to parallel hash+maxmin partitioning.
  Batch size limit is not set. Defaulting to    200
  By default, will store active basis functions for each batch.
  If in need of memory, prune_basis_once .false. can be used to disable this option.
  communication_type for Hartree potential was not specified.
  Defaulting to calc_hartree .
  Pulay mixer: Number of initial linear mixing iterations not set.
  Defaulting to    0 iterations.
  Work space size for distributed Hartree potential not set.
  Defaulting to   0.200000E+03 MB.
  Algorithm-dependent basis array size parameters:
  | n_max_pulay                         :        5
  Presetting      1001 iterations before the initial mixing cycle
  is restarted anyway using the sc_init_iter criterion / keyword.
  Presetting a factor      1.000 between actual scf density residual
  and density convergence criterion sc_accuracy_rho below which sc_init_iter
  takes no effect.
  Calculation of forces was not defined in control.in. No forces will be calculated.
  Geometry relaxation not requested: no relaxation will be performed.
  No accuracy limit for integral partition fn. given. Defaulting to  0.1000E-14.
  No threshold value for u(r) in integrations given. Defaulting to  0.1000E-05.
  No accuracy for occupation numbers given. Defaulting to  0.1000E-12.
  No threshold value for occupation numbers given. Defaulting to  0.0000E+00.
  No accuracy for fermi level given. Defaulting to  0.1000E-19.
  Maximum # of iterations to find E_F not set. Defaulting to  200.
  Will not use alltoall communication since running on < 1024 CPUs.
  partition_type (choice of integration weights) for integrals was not specified.
  | Using a version of the partition function of Stratmann and coworkers ('stratmann_sparse').
  | At each grid point, the set of atoms used to build the partition table is smoothly restricted to
  | only those atoms whose free-atom density would be non-zero at that grid point.
  Partitioning for Hartree potential was not defined. Using partition_type for integrals.
  | Adjusted default value of keyword multip_moments_threshold to:       0.10000000E-11
  | This value may affect high angular momentum components of the Hartree potential in periodic systems.
  No q(lm)/r^(l+1) cutoff set for long-range Hartree potential.
  | Using default value of  0.100000E-09 .
  | Verify using the multipole_threshold keyword.
  Defaulting to new monopole extrapolation.
  Density update method: automatic selection selected.
 * Warning: use_local_index and/or load_balancing needs packed_matrix_format = index
 * Changing the default setting to packed_matrix_format = index
------------------------------------------------------------


------------------------------------------------------------
          Reading geometry description geometry.in.
------------------------------------------------------------
  Input structure read successfully.
  The structure contains       48 atoms,  and a total of        198.000 electrons.

  Input geometry:
  | No unit cell requested.
  | Atomic structure:
  |       Atom                x [A]            y [A]            z [A]
  |    1: Species H            19.49067300       28.12699900       38.99062000
  |    2: Species C            19.26399100       27.62997500       39.93419100
  |    3: Species C            18.91957600       26.25592700       39.94196300
  |    4: Species C            19.31105200       28.31919000       41.11187100
  |    5: Species C            18.80492400       25.41111800       38.81186700
  |    6: Species C            18.64709200       25.69052900       41.17372900
  |    7: Species C            19.06603800       27.70448400       42.36790300
  |    8: Species H            19.54930700       29.38215900       41.09696100
  |    9: Species C            18.37495700       24.12253700       38.96952500
  |   10: Species H            19.06637800       25.79287100       37.82499600
  |   11: Species C            18.15089500       24.36907700       41.35486100
  |   12: Species C            18.77326500       26.36550000       42.42008600
  |   13: Species H            19.11401200       28.32390200       43.25786400
  |   14: Species H            18.30672200       23.46542700       38.10430800
  |   15: Species C            18.00229400       23.60206400       40.23190200
  |   16: Species C            17.94164900       24.21677000       42.80693600
  |   17: Species C            18.38833100       25.36509700       43.45549200
  |   18: Species H            17.61588900       22.58763600       40.25839000
  |   19: Species C            17.31535200       23.13857000       43.52702500
  |   20: Species C            18.34389300       25.46042600       44.89947700
  |   21: Species C            16.97015600       21.91573300       42.91669400
  |   22: Species C            17.02837200       23.32813100       44.89281600
  |   23: Species C            17.51869800       24.51809600       45.58356200
  |   24: Species C            19.06312800       26.41590400       45.68475600
  |   25: Species C            16.36469200       20.91752100       43.63392800
  |   26: Species H            17.22500600       21.74019700       41.87748100
  |   27: Species C            16.36234600       22.29595200       45.57991400
  |   28: Species C            17.23674000       24.72847700       46.94174000
  |   29: Species C            18.77092700       26.54739200       47.02120300
  |   30: Species C            20.22302000       27.19716100       45.16721100
  |   31: Species H            16.15857500       19.96204300       43.15238800
  |   32: Species C            16.04636600       21.11146600       44.96910700
  |   33: Species H            16.11259900       22.41615400       46.63149900
  |   34: Species H            16.54378100       24.06501100       47.45294000
  |   35: Species C            17.81028500       25.74312400       47.64596800
  |   36: Species H            19.32816700       27.26860200       47.61868700
  |   37: Species C            21.23665100       26.56711500       44.45806600
  |   38: Species C            20.35547700       28.55477200       45.44747500
  |   39: Species H            15.56004700       20.32527800       45.54502000
  |   40: Species H            17.56121800       25.90562100       48.69327000
  |   41: Species H            21.16027000       25.50250200       44.23743900
  |   42: Species C            22.34736700       27.27386200       44.02664700
  |   43: Species H            19.56850100       29.06702700       46.00118200
  |   44: Species C            21.45126700       29.26042400       45.00796700
  |   45: Species H            23.14266000       26.76697600       43.48277300
  |   46: Species C            22.44880100       28.62489900       44.29580800
  |   47: Species H            21.53225700       30.32383100       45.23303400
  |   48: Species H            23.32587100       29.17605200       43.95574800
  |

  | The smallest distance between any two atoms is         1.08430857 AA.
  |
  | The first atom of this pair is atom number                     21 .
  | The second atom of this pair is atom number                    26 .

  Number of empty states per atom not set in control.in - providing a guess from actual geometry.
  | Total number of empty states used during s.c.f. cycle:      117
  If you use a very high smearing, use empty_states (per atom!) in control.in to increase this value.

  Structure-dependent array size parameters: 
  | Maximum number of distinct radial functions  :       18
  | Maximum number of basis functions            :     1440
  | Number of Kohn-Sham states (occupied + empty):      216
------------------------------------------------------------

------------------------------------------------------------
          Preparing all fixed parts of the calculation.
------------------------------------------------------------
  Determining machine precision:
    2.225073858507201E-308
  Setting up grids for atomic and cluster calculations.

  Creating wave function, potential, and density for free atoms.

  Species: H

  List of occupied orbitals and eigenvalues:
    n    l              occ      energy [Ha]    energy [eV]
    1    0           1.0000        -0.238386        -6.4868


  Species: C

  List of occupied orbitals and eigenvalues:
    n    l              occ      energy [Ha]    energy [eV]
    1    0           2.0000       -10.049212      -273.4530
    2    0           2.0000        -0.504761       -13.7352
    2    1           2.0000        -0.193631        -5.2690

  Creating fixed part of basis set: Ionic, confined, hydrogenic.
 
  H                    hydrogenic:
 
  List of hydrogenic basis orbitals: 
    n    l      effective z      eigenvalue [eV]  inner max. [A]     outer max. [A]     outer radius [A]   
    2    0         2.100000       -14.9965           0.193243           1.317208           5.373006
    2    1         3.500000       -41.6672           0.602369           0.602369           4.056063
    1    0         0.850000        -9.8292           0.624871           0.624871           5.373006
    2    1         3.700000       -46.5653           0.573622           0.573622           3.910002
    2    0         1.200000        -4.5995           0.334980           2.228188           5.505995
    3    2         7.000000       -74.0753           0.680699           0.680699           3.769201
 
 
  C                    hydrogenic:
 
  List of hydrogenic basis orbitals: 
    n    l      effective z      eigenvalue [eV]  inner max. [A]     outer max. [A]     outer radius [A]   
    2    1         1.700000        -9.8152           1.245706           1.245706           5.401630
    3    2         6.000000       -54.4226           0.792453           0.792453           4.178599
    2    0         4.900000       -81.6681           0.082559           0.562749           3.353238
    4    3         9.800000       -81.6681           0.863254           0.863254           4.028125
    3    1         5.200000       -40.8774           0.305389           1.215618           4.898362
    3    0         4.300000       -27.9508           0.091041           1.610311           5.401630
    5    4        14.400000      -112.8510           0.917666           0.917666           3.883070
    3    2         6.200000       -58.1113           0.763917           0.763917           4.077671
 

  Adding cutoff potential to free-atom effective potential.
  Creating atomic-like basis functions for current effective potential.

  Species H                   :

  List of atomic basis orbitals and eigenvalues:
    n    l      energy [Ha]    energy [eV]    outer radius [A]
    1    0        -0.238386        -6.4868       5.373006


  Species C                   :

  List of atomic basis orbitals and eigenvalues:
    n    l      energy [Ha]    energy [eV]    outer radius [A]
    1    0       -10.049212      -273.4530       1.934409
    2    0        -0.504761       -13.7352       5.271162
    2    1        -0.193631        -5.2690       5.401630

  Assembling full basis from fixed parts.
  | Species H :   atomic orbital   1 s accepted.
  | Species H :    hydro orbital   2 s accepted.
  | Species H :    hydro orbital   1 s accepted.
  | Species H :    hydro orbital   2 s accepted.
  | Species H :    hydro orbital   2 p accepted.
  | Species H :    hydro orbital   2 p accepted.
  | Species H :    hydro orbital   3 d accepted.
  | Species C :   atomic orbital   1 s accepted.
  | Species C :    hydro orbital   2 s accepted.
  | Species C :   atomic orbital   2 s accepted.
  | Species C :    hydro orbital   3 s accepted.
  | Species C :    hydro orbital   3 p accepted.
  | Species C :   atomic orbital   2 p accepted.
  | Species C :    hydro orbital   2 p accepted.
  | Species C :    hydro orbital   3 d accepted.
  | Species C :    hydro orbital   3 d accepted.
  | Species C :    hydro orbital   4 f accepted.
  | Species C :    hydro orbital   5 g accepted.
 
  Basis size parameters after reduction:
  | Total number of radial functions:       18
  | Total number of basis functions :     1440
 
  Per-task memory consumption for arrays in subroutine allocate_ext:
  |           4.447096MB.
  Testing on-site integration grid accuracy.
  |  Species  Function  <phi|h_atom|phi> (log., in eV)  <phi|h_atom|phi> (rad., in eV)
           1        1                 -6.4870767962                 -6.4871688290
           1        2                 13.5032046589                 13.5028982997
           1        3                 32.8195184817                 32.8119941656
           1        4                 33.8513856511                 33.7670005767 ***
           1        5                 28.8544614965                 28.8544615203
           1        6                 59.6326952547                 59.6327656460
           1        7                 60.2719308513                 60.2719305949
           2        8               -273.4529726040               -273.4529710464
           2        9                -10.7721037319                -10.7721022101
           2       10                 17.6044132601                 17.6044162063
           2       11                 53.7706460658                 53.7706913770
           2       12                 15.0973290362                 15.0973256030
           2       13                  3.8545134692                  3.8545724687
           2       14                 12.1156992592                 12.1182024431
           2       15                 29.4352039302                 29.4352041816
           2       16                 54.8741144708                 54.8740268729
           2       17                 59.3556032049                 59.3556031382
           2       18                 93.4551837154                 93.4551838009
 * Note: Onsite integrals marked "***" above are less accurate than
 * onsite_accuracy_threshold =    0.03000 eV. Usually, this is harmless.
 * When in doubt, tighten the "radial" and/or "radial_multiplier" flags to check.

  Preparing densities etc. for the partition functions (integrals / Hartree potential).

  Preparations completed.
  max(cpu_time)          :      0.187 s.
  Wall clock time (cpu1) :      0.178 s.
------------------------------------------------------------

------------------------------------------------------------
          Begin self-consistency loop: Initialization.

          Date     :  20210620, Time     :  174548.206
------------------------------------------------------------

  Initializing index lists of integration centers etc. from given atomic structure:
  | Number of centers in hartree potential         :        48
  | Number of centers in hartree multipole         :        48
  | Number of centers in electron density summation:        48
  | Number of centers in basis integrals           :        48
  | Number of centers in integrals                 :        48
  | Number of centers in hamiltonian               :        48
  * Using 56 tasks for Scalapack Eigenvalue solver.
  Detailed listing of tasks and assigned k-points:
  (for non-periodic systems, the "k-point" denotes an internal label only)
   Task     0 k-point     1 on f001
   Task     1 k-point     1 on f001
   Task     2 k-point     1 on f001
   Task     3 k-point     1 on f001
   Task     4 k-point     1 on f001
   Task     5 k-point     1 on f001
   Task     6 k-point     1 on f001
   Task     7 k-point     1 on f001
   Task     8 k-point     1 on f001
   Task     9 k-point     1 on f001
   Task    10 k-point     1 on f001
   Task    11 k-point     1 on f001
   Task    12 k-point     1 on f001
   Task    13 k-point     1 on f001
   Task    14 k-point     1 on f001
   Task    15 k-point     1 on f001
   Task    16 k-point     1 on f001
   Task    17 k-point     1 on f001
   Task    18 k-point     1 on f001
   Task    19 k-point     1 on f001
   Task    20 k-point     1 on f001
   Task    21 k-point     1 on f001
   Task    22 k-point     1 on f001
   Task    23 k-point     1 on f001
   Task    24 k-point     1 on f001
   Task    25 k-point     1 on f001
   Task    26 k-point     1 on f001
   Task    27 k-point     1 on f001
   Task    28 k-point     1 on f001
   Task    29 k-point     1 on f001
   Task    30 k-point     1 on f001
   Task    31 k-point     1 on f001
   Task    32 k-point     1 on f001
   Task    33 k-point     1 on f001
   Task    34 k-point     1 on f001
   Task    35 k-point     1 on f001
   Task    36 k-point     1 on f001
   Task    37 k-point     1 on f001
   Task    38 k-point     1 on f001
   Task    39 k-point     1 on f001
   Task    40 k-point     1 on f001
   Task    41 k-point     1 on f001
   Task    42 k-point     1 on f001
   Task    43 k-point     1 on f001
   Task    44 k-point     1 on f001
   Task    45 k-point     1 on f001
   Task    46 k-point     1 on f001
   Task    47 k-point     1 on f001
   Task    48 k-point     1 on f001
   Task    49 k-point     1 on f001
   Task    50 k-point     1 on f001
   Task    51 k-point     1 on f001
   Task    52 k-point     1 on f001
   Task    53 k-point     1 on f001
   Task    54 k-point     1 on f001
   Task    55 k-point     1 on f001
  Tasks:    56 split into      8 X      7 BLACS grid
  Calculating block size based on n_basis =         1440 max_nprow =            8 max_npcol =            7
  ScaLAPACK block size set to:           16
  Allocating        0.319 MB for ovlp
  Allocating        0.319 MB for ham
  Allocating        0.319 MB for eigenvec
  Required Scalapack workspace - INTEGER:            1 REAL:             1
  Partitioning the integration grid into batches with parallel hashing+maxmin method.
  | Number of batches:     7181
  | Maximal batch size:     200
  | Minimal batch size:       2
  | Average batch size:     111.745
  | Standard deviation of batch sizes:      31.636

  Integration load balanced across     56 MPI tasks.
  Work distribution over tasks is as follows:
  Task      0 has      14436 integration points.
  Task      1 has      14319 integration points.
  Task      2 has      14314 integration points.
  Task      3 has      14484 integration points.
  Task      4 has      14288 integration points.
  Task      5 has      14272 integration points.
  Task      6 has      14259 integration points.
  Task      7 has      14454 integration points.
  Task      8 has      14447 integration points.
  Task      9 has      14248 integration points.
  Task     10 has      14333 integration points.
  Task     11 has      14265 integration points.
  Task     12 has      14275 integration points.
  Task     13 has      14238 integration points.
  Task     14 has      14489 integration points.
  Task     15 has      14430 integration points.
  Task     16 has      14195 integration points.
  Task     17 has      14475 integration points.
  Task     18 has      14235 integration points.
  Task     19 has      14291 integration points.
  Task     20 has      14270 integration points.
  Task     21 has      14343 integration points.
  Task     22 has      14351 integration points.
  Task     23 has      14305 integration points.
  Task     24 has      14476 integration points.
  Task     25 has      14248 integration points.
  Task     26 has      14365 integration points.
  Task     27 has      14141 integration points.
  Task     28 has      14497 integration points.
  Task     29 has      14472 integration points.
  Task     30 has      14219 integration points.
  Task     31 has      14413 integration points.
  Task     32 has      14273 integration points.
  Task     33 has      14332 integration points.
  Task     34 has      14259 integration points.
  Task     35 has      14379 integration points.
  Task     36 has      14323 integration points.
  Task     37 has      14274 integration points.
  Task     38 has      14337 integration points.
  Task     39 has      14260 integration points.
  Task     40 has      14333 integration points.
  Task     41 has      14263 integration points.
  Task     42 has      14384 integration points.
  Task     43 has      14322 integration points.
  Task     44 has      14284 integration points.
  Task     45 has      14452 integration points.
  Task     46 has      14266 integration points.
  Task     47 has      14382 integration points.
  Task     48 has      14216 integration points.
  Task     49 has      14454 integration points.
  Task     50 has      14401 integration points.
  Task     51 has      14216 integration points.
  Task     52 has      14329 integration points.
  Task     53 has      14319 integration points.
  Task     54 has      14368 integration points.
  Task     55 has      14167 integration points.
  Initializing partition tables, free-atom densities, potentials, etc. across the integration grid (initialize_grid_storage).
  | initialize_grid_storage: Actual outermost partition radius vs. multipole_radius_free
  | (-- VB: in principle, multipole_radius_free should be larger, hence this output)
  | Species        1: Confinement radius =              6.000000000000000 AA, multipole_radius_free =              6.071692442739658 AA.
  | Species        1: outer_partition_radius set to              6.071692442739658 AA .
  | Species        2: Confinement radius =              6.000000000000000 AA, multipole_radius_free =              6.029870734432609 AA.
  | Species        2: outer_partition_radius set to              6.029870734432609 AA .
  | The sparse table of interatomic distances needs     27.2680 kbyte instead of    18.4320 kbyte of memory.
  | Using the partition_type stratmann_smoother will reduce your memory usage.
  | Net number of integration points:   802440
  | of which are non-zero points    :   636903
  Renormalizing the initial density to the exact electron count on the 3D integration grid.
  | Initial density: Formal number of electrons (from input files) :     198.0000000000
  | Integrated number of electrons on 3D grid     :     198.0000765775
  | Charge integration error                      :       0.0000765775
  | Normalization factor for density and gradient :       0.9999996132
  Obtaining max. number of non-zero basis functions in each batch (get_n_compute_maxes).
  | Maximal number of non-zero basis functions:     1079
  Selecting the method for density update.
  Loop over occupied states selected for charge density update.
  Hamiltonian matrix size:
  | Size of matrix non-packed:               1037520
  | Size of matrix packed:          974210
  Allocating        2.488 MB for KS_eigenvector
  use_local_index: Max. local matrix size =       855648
  Task:     0 matrix size:     259613
  Task:     1 matrix size:     267579
  Task:     2 matrix size:     465839
  Task:     3 matrix size:     182057
  Task:     4 matrix size:     263599
  Task:     5 matrix size:     611160
  Task:     6 matrix size:     723268
  Task:     7 matrix size:     267638
  Task:     8 matrix size:     244792
  Task:     9 matrix size:     296557
  Task:    10 matrix size:     659126
  Task:    11 matrix size:     788306
  Task:    12 matrix size:     694436
  Task:    13 matrix size:     855648
  Task:    14 matrix size:     311526
  Task:    15 matrix size:     260767
  Task:    16 matrix size:     205586
  Task:    17 matrix size:     782417
  Task:    18 matrix size:     798024
  Task:    19 matrix size:     675406
  Task:    20 matrix size:     489351
  Task:    21 matrix size:     403954
  Task:    22 matrix size:     216186
  Task:    23 matrix size:     346764
  Task:    24 matrix size:     771419
  Task:    25 matrix size:     497491
  Task:    26 matrix size:     485884
  Task:    27 matrix size:     325507
  Task:    28 matrix size:     215496
  Task:    29 matrix size:     181503
  Task:    30 matrix size:     164327
  Task:    31 matrix size:     476207
  Task:    32 matrix size:     583754
  Task:    33 matrix size:     326534
  Task:    34 matrix size:     222225
  Task:    35 matrix size:     608123
  Task:    36 matrix size:     423267
  Task:    37 matrix size:     543503
  Task:    38 matrix size:     728387
  Task:    39 matrix size:     782552
  Task:    40 matrix size:     434780
  Task:    41 matrix size:     520091
  Task:    42 matrix size:     705992
  Task:    43 matrix size:     682623
  Task:    44 matrix size:     503745
  Task:    45 matrix size:     368021
  Task:    46 matrix size:     326747
  Task:    47 matrix size:     385294
  Task:    48 matrix size:     316537
  Task:    49 matrix size:     568024
  Task:    50 matrix size:     399076
  Task:    51 matrix size:     238395
  Task:    52 matrix size:     447486
  Task:    53 matrix size:     324352
  Task:    54 matrix size:     220780
  Task:    55 matrix size:     179685
  Integrating Hamiltonian matrix: batch-based integration.
  Time summed over all CPUs for integration: real work      153.823 s, elapsed      308.756 s
  Time get_set_sparse_local_matrix_scalapack:     0.016318 s
  Start compute_balanced_batch_distribution
  Done load balancing, time needed:      0.008 s
  Integrating overlap matrix with loadbalancing
  Time summed over all CPUs for integration: real work       43.337 s, elapsed       51.119 s
  Time get_set_full_local_matrix_scalapack:     0.017945 s

  Updating Kohn-Sham eigenvalues and eigenvectors using ELSI and the ELPA eigensolver.
  Overlap matrix is not singular
  | Lowest and highest eigenvalues :  0.12E+02,  0.90E-04
  Finished singularity check of overlap matrix
  | Time :     0.085 s
  Finished Cholesky decomposition
  | Time :     0.019 s
  Finished transformation to standard eigenproblem
  | Time :     0.014 s
  Starting ELPA eigensolver
  Finished solving standard eigenproblem
  | Time :     0.086 s
  Finished back-transformation of eigenvectors
  | Time :     0.004 s

  Obtaining occupation numbers and chemical potential using ELSI.
  | Chemical potential (Fermi level):    -8.06897137 eV
  Writing Kohn-Sham eigenvalues.

  State    Occupation    Eigenvalue [Ha]    Eigenvalue [eV]
      1       2.00000         -10.174989         -276.87554
      2       2.00000         -10.174818         -276.87089
      3       2.00000         -10.174537         -276.86325
      4       2.00000         -10.174451         -276.86090
      5       2.00000         -10.173862         -276.84488
      6       2.00000         -10.173790         -276.84291
      7       2.00000         -10.173417         -276.83277
      8       2.00000         -10.173271         -276.82878
      9       2.00000         -10.173154         -276.82560
     10       2.00000         -10.172326         -276.80307
     11       2.00000         -10.172286         -276.80198
     12       2.00000         -10.172243         -276.80083
     13       2.00000         -10.172224         -276.80031
     14       2.00000         -10.172098         -276.79687
     15       2.00000         -10.171268         -276.77428
     16       2.00000         -10.171052         -276.76840
     17       2.00000         -10.170962         -276.76595
     18       2.00000         -10.170535         -276.75434
     19       2.00000         -10.170516         -276.75383
     20       2.00000         -10.169850         -276.73569
     21       2.00000         -10.166896         -276.65531
     22       2.00000         -10.166357         -276.64064
     23       2.00000         -10.165897         -276.62813
     24       2.00000         -10.164656         -276.59436
     25       2.00000         -10.164084         -276.57880
     26       2.00000         -10.162450         -276.53433
     27       2.00000         -10.162200         -276.52752
     28       2.00000         -10.160969         -276.49404
     29       2.00000         -10.159272         -276.44786
     30       2.00000         -10.158164         -276.41770
     31       2.00000          -1.032033          -28.08305
     32       2.00000          -1.010707          -27.50274
     33       2.00000          -1.003187          -27.29809
     34       2.00000          -0.987026          -26.85834
     35       2.00000          -0.965790          -26.28048
     36       2.00000          -0.961768          -26.17104
     37       2.00000          -0.925218          -25.17647
     38       2.00000          -0.913537          -24.85861
     39       2.00000          -0.897964          -24.43483
     40       2.00000          -0.890094          -24.22070
     41       2.00000          -0.884343          -24.06419
     42       2.00000          -0.879924          -23.94396
     43       2.00000          -0.865804          -23.55972
     44       2.00000          -0.860321          -23.41053
     45       2.00000          -0.849847          -23.12551
     46       2.00000          -0.786199          -21.39357
     47       2.00000          -0.782493          -21.29273
     48       2.00000          -0.775331          -21.09784
     49       2.00000          -0.759829          -20.67601
     50       2.00000          -0.751592          -20.45185
     51       2.00000          -0.751285          -20.44351
     52       2.00000          -0.745422          -20.28395
     53       2.00000          -0.721967          -19.64572
     54       2.00000          -0.714565          -19.44430
     55       2.00000          -0.687432          -18.70597
     56       2.00000          -0.678845          -18.47231
     57       2.00000          -0.659127          -17.93577
     58       2.00000          -0.653669          -17.78724
     59       2.00000          -0.651449          -17.72682
     60       2.00000          -0.646172          -17.58324
     61       2.00000          -0.640961          -17.44144
     62       2.00000          -0.630583          -17.15903
     63       2.00000          -0.616058          -16.76379
     64       2.00000          -0.607597          -16.53356
     65       2.00000          -0.606285          -16.49785
     66       2.00000          -0.601941          -16.37965
     67       2.00000          -0.587013          -15.97343
     68       2.00000          -0.583951          -15.89010
     69       2.00000          -0.578284          -15.73590
     70       2.00000          -0.573968          -15.61846
     71       2.00000          -0.569548          -15.49819
     72       2.00000          -0.567891          -15.45310
     73       2.00000          -0.567322          -15.43762
     74       2.00000          -0.556534          -15.14406
     75       2.00000          -0.544872          -14.82673
     76       2.00000          -0.543433          -14.78755
     77       2.00000          -0.528768          -14.38851
     78       2.00000          -0.525330          -14.29496
     79       2.00000          -0.523077          -14.23366
     80       2.00000          -0.520289          -14.15778
     81       2.00000          -0.509532          -13.86507
     82       2.00000          -0.507867          -13.81977
     83       2.00000          -0.504083          -13.71680
     84       2.00000          -0.499171          -13.58313
     85       2.00000          -0.495643          -13.48712
     86       2.00000          -0.493225          -13.42134
     87       2.00000          -0.489191          -13.31157
     88       2.00000          -0.482905          -13.14052
     89       2.00000          -0.470582          -12.80519
     90       2.00000          -0.469037          -12.76314
     91       2.00000          -0.433285          -11.79027
     92       2.00000          -0.421073          -11.45798
     93       2.00000          -0.414404          -11.27651
     94       2.00000          -0.407297          -11.08312
     95       2.00000          -0.400634          -10.90182
     96       2.00000          -0.398310          -10.83857
     97       2.00000          -0.379134          -10.31677
     98       2.00000          -0.372138          -10.12640
     99       2.00000          -0.355501           -9.67366
    100       0.00000          -0.271595           -7.39047
    101       0.00000          -0.237766           -6.46994
    102       0.00000          -0.228684           -6.22280
    103       0.00000          -0.216515           -5.89168
    104       0.00000          -0.212539           -5.78348
    105       0.00000          -0.208614           -5.67666
    106       0.00000          -0.198726           -5.40761
    107       0.00000          -0.170675           -4.64430
    108       0.00000          -0.161192           -4.38625
    109       0.00000          -0.146406           -3.98390
    110       0.00000          -0.093655           -2.54849
    111       0.00000          -0.088130           -2.39813
    112       0.00000          -0.079409           -2.16083
    113       0.00000          -0.072966           -1.98549
    114       0.00000          -0.070062           -1.90647
    115       0.00000          -0.063886           -1.73844
    116       0.00000          -0.061427           -1.67151
    117       0.00000          -0.048940           -1.33172
    118       0.00000          -0.047373           -1.28909
    119       0.00000          -0.043117           -1.17329
    120       0.00000          -0.040955           -1.11443
    121       0.00000          -0.033680           -0.91647
    122       0.00000          -0.029459           -0.80162
    123       0.00000          -0.023287           -0.63368
    124       0.00000          -0.019219           -0.52296
    125       0.00000          -0.016078           -0.43750
    126       0.00000          -0.010660           -0.29007
    127       0.00000          -0.005980           -0.16271
    128       0.00000          -0.004955           -0.13483
    129       0.00000          -0.004194           -0.11413
    130       0.00000          -0.001366           -0.03716
    131       0.00000           0.002923            0.07954
    132       0.00000           0.003996            0.10872
    133       0.00000           0.011282            0.30701
    134       0.00000           0.014248            0.38772
    135       0.00000           0.021631            0.58862
    136       0.00000           0.028004            0.76202
    137       0.00000           0.031829            0.86610
    138       0.00000           0.035291            0.96031
    139       0.00000           0.037040            1.00792
    140       0.00000           0.038986            1.06086
    141       0.00000           0.043005            1.17023
    142       0.00000           0.044353            1.20690
    143       0.00000           0.046226            1.25787
    144       0.00000           0.049813            1.35548
    145       0.00000           0.053269            1.44952
    146       0.00000           0.055867            1.52021
    147       0.00000           0.058686            1.59692
    148       0.00000           0.060768            1.65358
    149       0.00000           0.064676            1.75991
    150       0.00000           0.068396            1.86114
    151       0.00000           0.068876            1.87422
    152       0.00000           0.071081            1.93421
    153       0.00000           0.074953            2.03957
    154       0.00000           0.077232            2.10160
    155       0.00000           0.080419            2.18832
    156       0.00000           0.081527            2.21846
    157       0.00000           0.084430            2.29745
    158       0.00000           0.087989            2.39430
    159       0.00000           0.090550            2.46399
    160       0.00000           0.091899            2.50069
    161       0.00000           0.096709            2.63159
    162       0.00000           0.099506            2.70770
    163       0.00000           0.104079            2.83212
    164       0.00000           0.106921            2.90948
    165       0.00000           0.109156            2.97030
    166       0.00000           0.111987            3.04733
    167       0.00000           0.117171            3.18838
    168       0.00000           0.120366            3.27532
    169       0.00000           0.121588            3.30858
    170       0.00000           0.124557            3.38937
    171       0.00000           0.127095            3.45843
    172       0.00000           0.128510            3.49695
    173       0.00000           0.131881            3.58866
    174       0.00000           0.135837            3.69632
    175       0.00000           0.138525            3.76946
    176       0.00000           0.140683            3.82818
    177       0.00000           0.144738            3.93851
    178       0.00000           0.145751            3.96608
    179       0.00000           0.146905            3.99748
    180       0.00000           0.154630            4.20770
    181       0.00000           0.159409            4.33775
    182       0.00000           0.160509            4.36769
    183       0.00000           0.162060            4.40988
    184       0.00000           0.164357            4.47238
    185       0.00000           0.167598            4.56057
    186       0.00000           0.173148            4.71159
    187       0.00000           0.174182            4.73973
    188       0.00000           0.177045            4.81765
    189       0.00000           0.181902            4.94981
    190       0.00000           0.183012            4.98000
    191       0.00000           0.184609            5.02347
    192       0.00000           0.190489            5.18346
    193       0.00000           0.191997            5.22449
    194       0.00000           0.195378            5.31650
    195       0.00000           0.197841            5.38352
    196       0.00000           0.201643            5.48697
    197       0.00000           0.205524            5.59259
    198       0.00000           0.207760            5.65345
    199       0.00000           0.210133            5.71800
    200       0.00000           0.212537            5.78343
    201       0.00000           0.215662            5.86847
    202       0.00000           0.220678            6.00494
    203       0.00000           0.223426            6.07974
    204       0.00000           0.229230            6.23768
    205       0.00000           0.231801            6.30762
    206       0.00000           0.234698            6.38645
    207       0.00000           0.238118            6.47951
    208       0.00000           0.242977            6.61174
    209       0.00000           0.247683            6.73981
    210       0.00000           0.248611            6.76506
    211       0.00000           0.250706            6.82206
    212       0.00000           0.254573            6.92729
    213       0.00000           0.258970            7.04694
    214       0.00000           0.260998            7.10212
    215       0.00000           0.266438            7.25014
    216       0.00000           0.274952            7.48182

  Highest occupied state (VBM) at     -9.67366188 eV
  | Occupation number:      2.00000000

  Lowest unoccupied state (CBM) at    -7.39047260 eV
  | Occupation number:      0.00000000

  Overall HOMO-LUMO gap:      2.28318928 eV.
  Calculating total energy contributions from superposition of free atom densities.

  Total energy components:
  | Sum of eigenvalues            :        -699.50450304 Ha      -19034.48599172 eV
  | XC energy correction          :        -165.42954875 Ha       -4501.56705867 eV
  | XC potential correction       :         212.49578193 Ha        5782.30442661 eV
  | Free-atom electrostatic energy:        -502.54505136 Ha      -13674.94662105 eV
  | Hartree energy correction     :           0.00000000 Ha           0.00000000 eV
  | Entropy correction            :           0.00000000 Ha           0.00000000 eV
  | ---------------------------
  | Total energy                  :       -1154.98332122 Ha      -31428.69524483 eV
  | Total energy, T -> 0          :       -1154.98332122 Ha      -31428.69524483 eV  <-- do not rely on this value for anything but (periodic) metals
  | Electronic free energy        :       -1154.98332122 Ha      -31428.69524483 eV

  Derived energy quantities:
  | Kinetic energy                :        1144.41030134 Ha       31140.98873540 eV
  | Electrostatic energy          :       -2133.96407381 Ha      -58068.11692156 eV
  | Energy correction for multipole
  | error in Hartree potential    :           0.00000000 Ha           0.00000000 eV
  | Sum of eigenvalues per atom                           :        -396.55179149 eV
  | Total energy (T->0) per atom                          :        -654.76448427 eV  <-- do not rely on this value for anything but (periodic) metals
  | Electronic free energy per atom                       :        -654.76448427 eV
  Initialize hartree_potential_storage
  Max. number of atoms included in rho_multipole:           48

  End scf initialization - timings             :  max(cpu_time)    wall_clock(cpu1)
  | Time for scf. initialization               :        8.411 s           8.471 s
  | Boundary condition initialization          :        0.001 s           0.004 s
  | Integration                                :        6.488 s           6.493 s
  | Solution of K.-S. eqns.                    :        0.223 s           0.240 s
  | Grid partitioning                          :        0.822 s           0.826 s
  | Preloading free-atom quantities on grid    :        0.014 s           0.016 s
  | Free-atom superposition energy             :        0.070 s           0.070 s
  | Total energy evaluation                    :        0.001 s           0.003 s

  Partial memory accounting:
  | Current value for overall tracked memory usage on task 0  :           4.486 MB
  | Peak value for overall tracked memory usage on task 0     :          31.440 MB after allocating zora_vector2
  | Largest tracked array allocation on task 0 so far         :           9.314 MB  when allocating hamiltonian_shell
  Note:  These values currently only include a subset of arrays which are explicitly tracked.
  The "true" memory usage will be greater.
------------------------------------------------------------

------------------------------------------------------------
          Begin self-consistency iteration #    1

  Date     :  20210620, Time     :  174556.680
------------------------------------------------------------
  Evaluating new KS density.
  Integration grid: deviation in total charge (<rho> - N_e) =  -2.842171E-14
  Pulay mixing of updated and previous charge densities.

  Evaluating partitioned Hartree potential by multipole expansion.
  | Analytical far-field extrapolation by fixed multipoles:
  | Hartree multipole sum: apparent total charge =   0.672340E-04
  Summing up the Hartree potential with load balancing.
  Time summed over all CPUs for potential: real work       24.927 s, elapsed       40.212 s
  | RMS charge density error from multipole expansion :   0.131519E-01

  Start compute_balanced_batch_distribution
  Done load balancing, time needed:      0.007 s
  Integrating Hamiltonian matrix: batch-based integration with load balancing
  Time summed over all CPUs for integration: real work      169.657 s, elapsed      190.722 s
  Time get_set_full_local_matrix_scalapack:     0.018295 s
  Start compute_balanced_batch_distribution
  Done load balancing, time needed:      0.007 s

  Updating Kohn-Sham eigenvalues and eigenvectors using ELSI and the ELPA eigensolver.
  Finished transformation to standard eigenproblem
  | Time :     0.016 s
  Starting ELPA eigensolver
  Finished solving standard eigenproblem
  | Time :     0.084 s
  Finished back-transformation of eigenvectors
  | Time :     0.003 s

  Obtaining occupation numbers and chemical potential using ELSI.
  | Chemical potential (Fermi level):    -5.79163479 eV
  Writing Kohn-Sham eigenvalues.

  State    Occupation    Eigenvalue [Ha]    Eigenvalue [eV]
      1       2.00000          -9.994148         -271.95460
      2       2.00000          -9.987921         -271.78517
      3       2.00000          -9.983167         -271.65579
      4       2.00000          -9.982390         -271.63465
      5       2.00000          -9.982340         -271.63329
      6       2.00000          -9.978964         -271.54143
      7       2.00000          -9.978292         -271.52313
      8       2.00000          -9.970585         -271.31342
      9       2.00000          -9.968863         -271.26656
     10       2.00000          -9.967130         -271.21940
     11       2.00000          -9.962783         -271.10113
     12       2.00000          -9.959210         -271.00389
     13       2.00000          -9.953753         -270.85541
     14       2.00000          -9.951202         -270.78598
     15       2.00000          -9.950885         -270.77735
     16       2.00000          -9.950758         -270.77391
     17       2.00000          -9.948622         -270.71577
     18       2.00000          -9.947930         -270.69696
     19       2.00000          -9.946373         -270.65457
     20       2.00000          -9.945873         -270.64096
     21       2.00000          -9.945568         -270.63268
     22       2.00000          -9.944168         -270.59457
     23       2.00000          -9.943855         -270.58605
     24       2.00000          -9.942247         -270.54232
     25       2.00000          -9.940951         -270.50703
     26       2.00000          -9.940205         -270.48674
     27       2.00000          -9.938750         -270.44714
     28       2.00000          -9.938256         -270.43371
     29       2.00000          -9.937583         -270.41539
     30       2.00000          -9.936271         -270.37969
     31       2.00000          -0.882194          -24.00572
     32       2.00000          -0.858709          -23.36665
     33       2.00000          -0.845364          -23.00351
     34       2.00000          -0.828751          -22.55147
     35       2.00000          -0.814979          -22.17672
     36       2.00000          -0.806426          -21.94397
     37       2.00000          -0.777862          -21.16670
     38       2.00000          -0.763920          -20.78732
     39       2.00000          -0.751117          -20.43894
     40       2.00000          -0.736725          -20.04729
     41       2.00000          -0.733399          -19.95681
     42       2.00000          -0.730305          -19.87262
     43       2.00000          -0.713551          -19.41672
     44       2.00000          -0.709809          -19.31489
     45       2.00000          -0.698042          -18.99469
     46       2.00000          -0.642895          -17.49406
     47       2.00000          -0.638230          -17.36712
     48       2.00000          -0.635707          -17.29846
     49       2.00000          -0.614410          -16.71894
     50       2.00000          -0.608472          -16.55737
     51       2.00000          -0.606652          -16.50785
     52       2.00000          -0.600832          -16.34948
     53       2.00000          -0.580373          -15.79276
     54       2.00000          -0.570812          -15.53259
     55       2.00000          -0.549068          -14.94089
     56       2.00000          -0.540847          -14.71720
     57       2.00000          -0.523569          -14.24703
     58       2.00000          -0.522267          -14.21161
     59       2.00000          -0.511489          -13.91831
     60       2.00000          -0.505139          -13.74554
     61       2.00000          -0.499992          -13.60548
     62       2.00000          -0.480466          -13.07415
     63       2.00000          -0.477355          -12.98950
     64       2.00000          -0.468594          -12.75108
     65       2.00000          -0.464217          -12.63200
     66       2.00000          -0.459349          -12.49952
     67       2.00000          -0.450958          -12.27118
     68       2.00000          -0.444295          -12.08989
     69       2.00000          -0.441081          -12.00242
     70       2.00000          -0.436651          -11.88188
     71       2.00000          -0.433899          -11.80699
     72       2.00000          -0.431521          -11.74229
     73       2.00000          -0.429378          -11.68396
     74       2.00000          -0.422702          -11.50232
     75       2.00000          -0.417664          -11.36523
     76       2.00000          -0.411858          -11.20723
     77       2.00000          -0.399386          -10.86785
     78       2.00000          -0.396604          -10.79215
     79       2.00000          -0.390630          -10.62959
     80       2.00000          -0.385222          -10.48242
     81       2.00000          -0.376680          -10.24998
     82       2.00000          -0.369413          -10.05224
     83       2.00000          -0.367535          -10.00115
     84       2.00000          -0.363492           -9.89112
     85       2.00000          -0.359048           -9.77020
     86       2.00000          -0.355663           -9.67808
     87       2.00000          -0.351000           -9.55119
     88       2.00000          -0.344836           -9.38346
     89       2.00000          -0.342336           -9.31543
     90       2.00000          -0.339028           -9.22541
     91       2.00000          -0.308632           -8.39830
     92       2.00000          -0.294458           -8.01260
     93       2.00000          -0.289760           -7.88478
     94       2.00000          -0.273841           -7.45159
     95       2.00000          -0.272479           -7.41452
     96       2.00000          -0.266477           -7.25122
     97       2.00000          -0.249052           -6.77704
     98       2.00000          -0.245545           -6.68163
     99       2.00000          -0.229333           -6.24046
    100       0.00000          -0.149594           -4.07065
    101       0.00000          -0.115610           -3.14591
    102       0.00000          -0.104890           -2.85419
    103       0.00000          -0.090492           -2.46241
    104       0.00000          -0.084744           -2.30600
    105       0.00000          -0.078972           -2.14893
    106       0.00000          -0.073011           -1.98674
    107       0.00000          -0.047550           -1.29391
    108       0.00000          -0.035773           -0.97343
    109       0.00000          -0.030845           -0.83934
    110       0.00000          -0.025912           -0.70509
    111       0.00000          -0.023494           -0.63929
    112       0.00000          -0.021353           -0.58106
    113       0.00000          -0.012748           -0.34690
    114       0.00000          -0.007794           -0.21208
    115       0.00000          -0.003787           -0.10304
    116       0.00000           0.004323            0.11765
    117       0.00000           0.007635            0.20775
    118       0.00000           0.011106            0.30221
    119       0.00000           0.022591            0.61473
    120       0.00000           0.027874            0.75850
    121       0.00000           0.030970            0.84274
    122       0.00000           0.032723            0.89043
    123       0.00000           0.036379            0.98993
    124       0.00000           0.039915            1.08614
    125       0.00000           0.043955            1.19608
    126       0.00000           0.046944            1.27741
    127       0.00000           0.056461            1.53639
    128       0.00000           0.062017            1.68757
    129       0.00000           0.064362            1.75137
    130       0.00000           0.068429            1.86205
    131       0.00000           0.077355            2.10494
    132       0.00000           0.082652            2.24907
    133       0.00000           0.085836            2.33573
    134       0.00000           0.091633            2.49346
    135       0.00000           0.094399            2.56872
    136       0.00000           0.098468            2.67944
    137       0.00000           0.100807            2.74311
    138       0.00000           0.105490            2.87053
    139       0.00000           0.106184            2.88940
    140       0.00000           0.110943            3.01890
    141       0.00000           0.114602            3.11848
    142       0.00000           0.116744            3.17676
    143       0.00000           0.122429            3.33146
    144       0.00000           0.125112            3.40448
    145       0.00000           0.128323            3.49185
    146       0.00000           0.130653            3.55525
    147       0.00000           0.132272            3.59930
    148       0.00000           0.133372            3.62923
    149       0.00000           0.138178            3.76001
    150       0.00000           0.139607            3.79890
    151       0.00000           0.142801            3.88580
    152       0.00000           0.146866            3.99644
    153       0.00000           0.148520            4.04144
    154       0.00000           0.152059            4.13773
    155       0.00000           0.152981            4.16282
    156       0.00000           0.154715            4.21002
    157       0.00000           0.158095            4.30197
    158       0.00000           0.160764            4.37460
    159       0.00000           0.163149            4.43952
    160       0.00000           0.169710            4.61804
    161       0.00000           0.170418            4.63731
    162       0.00000           0.171410            4.66431
    163       0.00000           0.177587            4.83240
    164       0.00000           0.181997            4.95238
    165       0.00000           0.183315            4.98824
    166       0.00000           0.185318            5.04276
    167       0.00000           0.188762            5.13648
    168       0.00000           0.191954            5.22334
    169       0.00000           0.194332            5.28803
    170       0.00000           0.198094            5.39042
    171       0.00000           0.200935            5.46772
    172       0.00000           0.203868            5.54753
    173       0.00000           0.205297            5.58643
    174       0.00000           0.208966            5.68624
    175       0.00000           0.209539            5.70184
    176       0.00000           0.213058            5.79759
    177       0.00000           0.214305            5.83153
    178       0.00000           0.219759            5.97994
    179       0.00000           0.221711            6.03307
    180       0.00000           0.222880            6.06487
    181       0.00000           0.224136            6.09904
    182       0.00000           0.228441            6.21618
    183       0.00000           0.231816            6.30803
    184       0.00000           0.234793            6.38905
    185       0.00000           0.239288            6.51135
    186       0.00000           0.245698            6.68580
    187       0.00000           0.248424            6.75997
    188       0.00000           0.250210            6.80856
    189       0.00000           0.253899            6.90895
    190       0.00000           0.254698            6.93068
    191       0.00000           0.261557            7.11733
    192       0.00000           0.264973            7.21029
    193       0.00000           0.266894            7.26257
    194       0.00000           0.272006            7.40167
    195       0.00000           0.276041            7.51145
    196       0.00000           0.279891            7.61621
    197       0.00000           0.280119            7.62243
    198       0.00000           0.284299            7.73616
    199       0.00000           0.287866            7.83323
    200       0.00000           0.289292            7.87203
    201       0.00000           0.294894            8.02447
    202       0.00000           0.300158            8.16771
    203       0.00000           0.302370            8.22790
    204       0.00000           0.307409            8.36502
    205       0.00000           0.309959            8.43441
    206       0.00000           0.314324            8.55320
    207       0.00000           0.319698            8.69943
    208       0.00000           0.323503            8.80296
    209       0.00000           0.326867            8.89451
    210       0.00000           0.328206            8.93095
    211       0.00000           0.333761            9.08210
    212       0.00000           0.339271            9.23202
    213       0.00000           0.340795            9.27351
    214       0.00000           0.346457            9.42758
    215       0.00000           0.349722            9.51642
    216       0.00000           0.353022            9.60622

  Highest occupied state (VBM) at     -6.24045744 eV
  | Occupation number:      2.00000000

  Lowest unoccupied state (CBM) at    -4.07065048 eV
  | Occupation number:      0.00000000

  Overall HOMO-LUMO gap:      2.16980695 eV.

  Total energy components:
  | Sum of eigenvalues            :        -667.52277468 Ha      -18164.21888440 eV
  | XC energy correction          :        -167.53539393 Ha       -4558.87002169 eV
  | XC potential correction       :         215.22931467 Ha        5856.68763718 eV
  | Free-atom electrostatic energy:        -502.54505136 Ha      -13674.94662105 eV
  | Hartree energy correction     :         -31.58587676 Ha        -859.49543715 eV
  | Entropy correction            :           0.00000000 Ha           0.00000000 eV
  | ---------------------------
  | Total energy                  :       -1153.95978206 Ha      -31400.84332712 eV
  | Total energy, T -> 0          :       -1153.95978206 Ha      -31400.84332712 eV  <-- do not rely on this value for anything but (periodic) metals
[...]
     46       2.00000          -0.584821          -15.91379
     47       2.00000          -0.579711          -15.77474
     48       2.00000          -0.577292          -15.70892
     49       2.00000          -0.556844          -15.15249
     50       2.00000          -0.551085          -14.99579
     51       2.00000          -0.548630          -14.92899
     52       2.00000          -0.543695          -14.79468
     53       2.00000          -0.520996          -14.17704
     54       2.00000          -0.511964          -13.93125
     55       2.00000          -0.489342          -13.31567
     56       2.00000          -0.482283          -13.12358
     57       2.00000          -0.464782          -12.64737
     58       2.00000          -0.462007          -12.57186
     59       2.00000          -0.452449          -12.31177
     60       2.00000          -0.445212          -12.11484
     61       2.00000          -0.440251          -11.97984
     62       2.00000          -0.419411          -11.41275
     63       2.00000          -0.417371          -11.35724
     64       2.00000          -0.411996          -11.21097
     65       2.00000          -0.405278          -11.02817
     66       2.00000          -0.399772          -10.87834
     67       2.00000          -0.390960          -10.63855
     68       2.00000          -0.386461          -10.51613
     69       2.00000          -0.380248          -10.34709
     70       2.00000          -0.379447          -10.32527
     71       2.00000          -0.377794          -10.28029
     72       2.00000          -0.375362          -10.21412
     73       2.00000          -0.372265          -10.12984
     74       2.00000          -0.368592          -10.02989
     75       2.00000          -0.359362           -9.77875
     76       2.00000          -0.357435           -9.72631
     77       2.00000          -0.351191           -9.55641
     78       2.00000          -0.339744           -9.24490
     79       2.00000          -0.335231           -9.12209
     80       2.00000          -0.330032           -8.98064
     81       2.00000          -0.326088           -8.87330
     82       2.00000          -0.320921           -8.73271
     83       2.00000          -0.308426           -8.39271
     84       2.00000          -0.308217           -8.38700
     85       2.00000          -0.304261           -8.27937
     86       2.00000          -0.302703           -8.23696
     87       2.00000          -0.298425           -8.12056
     88       2.00000          -0.294170           -8.00478
     89       2.00000          -0.285809           -7.77726
     90       2.00000          -0.277995           -7.56464
     91       2.00000          -0.266249           -7.24501
     92       2.00000          -0.252963           -6.88346
     93       2.00000          -0.247779           -6.74241
     94       2.00000          -0.236016           -6.42231
     95       2.00000          -0.231723           -6.30550
     96       2.00000          -0.228214           -6.21001
     97       2.00000          -0.207234           -5.63912
     98       2.00000          -0.203432           -5.53567
     99       2.00000          -0.185589           -5.05013
    100       0.00000          -0.106129           -2.88792
    101       0.00000          -0.072675           -1.97759
    102       0.00000          -0.061962           -1.68607
    103       0.00000          -0.048338           -1.31535
    104       0.00000          -0.045711           -1.24386
    105       0.00000          -0.039349           -1.07073
    106       0.00000          -0.031766           -0.86439
    107       0.00000          -0.008746           -0.23800
    108       0.00000          -0.004094           -0.11141
    109       0.00000          -0.003388           -0.09218
    110       0.00000          -0.000332           -0.00902
    111       0.00000           0.005545            0.15090
    112       0.00000           0.009305            0.25321
    113       0.00000           0.013413            0.36499
    114       0.00000           0.015739            0.42827
    115       0.00000           0.022247            0.60537
    116       0.00000           0.024738            0.67315
    117       0.00000           0.029754            0.80964
    118       0.00000           0.031394            0.85428
    119       0.00000           0.044116            1.20045
    120       0.00000           0.050428            1.37221
    121       0.00000           0.052834            1.43770
    122       0.00000           0.057039            1.55212
    123       0.00000           0.063984            1.74110
    124       0.00000           0.070161            1.90917
    125       0.00000           0.076724            2.08777
    126       0.00000           0.078749            2.14288
    127       0.00000           0.082560            2.24658
    128       0.00000           0.086009            2.34043
    129       0.00000           0.090337            2.45819
    130       0.00000           0.102366            2.78552
    131       0.00000           0.105142            2.86107
    132       0.00000           0.108046            2.94007
    133       0.00000           0.109310            2.97448
    134       0.00000           0.117022            3.18432
    135       0.00000           0.120578            3.28110
    136       0.00000           0.122430            3.33149
    137       0.00000           0.127803            3.47769
    138       0.00000           0.135671            3.69180
    139       0.00000           0.137778            3.74914
    140       0.00000           0.142228            3.87023
    141       0.00000           0.143674            3.90956
    142       0.00000           0.145519            3.95978
    143       0.00000           0.150559            4.09692
    144       0.00000           0.155232            4.22407
    145       0.00000           0.157356            4.28186
    146       0.00000           0.161644            4.39857
    147       0.00000           0.163534            4.44998
    148       0.00000           0.166956            4.54311
    149       0.00000           0.169290            4.60663
    150       0.00000           0.171254            4.66006
    151       0.00000           0.175890            4.78621
    152       0.00000           0.177415            4.82770
    153       0.00000           0.179069            4.87272
    154       0.00000           0.183644            4.99722
    155       0.00000           0.185178            5.03894
    156       0.00000           0.188998            5.14289
    157       0.00000           0.192245            5.23125
    158       0.00000           0.195738            5.32629
    159       0.00000           0.198129            5.39135
    160       0.00000           0.200573            5.45788
    161       0.00000           0.201765            5.49031
    162       0.00000           0.204500            5.56473
    163       0.00000           0.207318            5.64141
    164       0.00000           0.213339            5.80526
    165       0.00000           0.213914            5.82089
    166       0.00000           0.218410            5.94325
    167       0.00000           0.219817            5.98152
    168       0.00000           0.222184            6.04593
    169       0.00000           0.229181            6.23633
    170       0.00000           0.231206            6.29144
    171       0.00000           0.233516            6.35429
    172       0.00000           0.235517            6.40875
    173       0.00000           0.238300            6.48447
    174       0.00000           0.239698            6.52251
    175       0.00000           0.241390            6.56857
    176       0.00000           0.243134            6.61602
    177       0.00000           0.245317            6.67542
    178       0.00000           0.247610            6.73781
    179       0.00000           0.253737            6.90455
    180       0.00000           0.255388            6.94945
    181       0.00000           0.258187            7.02563
    182       0.00000           0.261477            7.11515
    183       0.00000           0.265951            7.23689
    184       0.00000           0.267908            7.29016
    185       0.00000           0.271881            7.39827
    186       0.00000           0.278663            7.58280
    187       0.00000           0.278861            7.58820
    188       0.00000           0.283430            7.71253
    189       0.00000           0.289604            7.88052
    190       0.00000           0.291243            7.92514
    191       0.00000           0.293124            7.97631
    192       0.00000           0.296276            8.06208
    193       0.00000           0.300297            8.17149
    194       0.00000           0.306166            8.33121
    195       0.00000           0.308406            8.39215
    196       0.00000           0.311538            8.47739
    197       0.00000           0.312725            8.50967
    198       0.00000           0.315365            8.58152
    199       0.00000           0.319650            8.69812
    200       0.00000           0.322202            8.76755
    201       0.00000           0.325431            8.85544
    202       0.00000           0.328293            8.93332
    203       0.00000           0.334736            9.10863
    204       0.00000           0.338693            9.21631
    205       0.00000           0.346827            9.43764
    206       0.00000           0.348790            9.49107
    207       0.00000           0.351275            9.55869
    208       0.00000           0.357686            9.73314
    209       0.00000           0.358535            9.75624
    210       0.00000           0.361961            9.84946
    211       0.00000           0.365888            9.95631
    212       0.00000           0.371994           10.12248
    213       0.00000           0.374400           10.18795
    214       0.00000           0.379181           10.31804
    215       0.00000           0.383478           10.43496
    216       0.00000           0.384421           10.46063

  Highest occupied state (VBM) at     -5.05013100 eV
  | Occupation number:      2.00000000

  Lowest unoccupied state (CBM) at    -2.88792174 eV
  | Occupation number:      0.00000000

  Overall HOMO-LUMO gap:      2.16220926 eV.

  Total energy components:
  | Sum of eigenvalues            :        -656.53696838 Ha      -17865.27988512 eV
  | XC energy correction          :        -168.49937902 Ha       -4585.10139065 eV
  | XC potential correction       :         216.46214858 Ha        5890.23475465 eV
  | Free-atom electrostatic energy:        -502.54505136 Ha      -13674.94662105 eV
  | Hartree energy correction     :         -42.44491309 Ha       -1154.98485022 eV
  | Entropy correction            :           0.00000000 Ha           0.00000000 eV
  | ---------------------------
  | Total energy                  :       -1153.56416328 Ha      -31390.07799240 eV
  | Total energy, T -> 0          :       -1153.56416328 Ha      -31390.07799240 eV  <-- do not rely on this value for anything but (periodic) metals
  | Electronic free energy        :       -1153.56416328 Ha      -31390.07799240 eV

  Derived energy quantities:
  | Kinetic energy                :        1150.73186027 Ha       31313.00710631 eV
  | Electrostatic energy          :       -2135.79664453 Ha      -58117.98370806 eV
  | Energy correction for multipole
  | error in Hartree potential    :          -0.13612489 Ha          -3.70414671 eV
  | Sum of eigenvalues per atom                           :        -372.19333094 eV
  | Total energy (T->0) per atom                          :        -653.95995817 eV  <-- do not rely on this value for anything but (periodic) metals
  | Electronic free energy per atom                       :        -653.95995817 eV
  End evaluation of scaled ZORA corrections.
  | Time for scaled ZORA corrections           :        6.074 s           6.086 s
------------------------------------------------------------

  Energy and forces in a compact form:
  | Total energy uncorrected      :         -0.313900779923970E+05 eV
  | Total energy corrected        :         -0.313900779923970E+05 eV  <-- do not rely on this value for anything but (periodic) metals
  | Electronic free energy        :         -0.313900779923970E+05 eV

  ------------------------------------ 
  Start decomposition of the XC Energy 
  ------------------------------------ 
  X and C from original XC functional choice 
  Hartree-Fock Energy :          0.000000000 Ha              0.000000000 eV
  X Energy            :       -161.852023323 Ha          -4404.217638738 eV
  C Energy            :         -6.647355702 Ha           -180.883751913 eV
  Total XC Energy     :       -168.499379025 Ha          -4585.101390651 eV
  ------------------------------------ 
  LDA X and C from self-consistent density 
  X Energy LDA        :       -146.603517311 Ha          -3989.284678610 eV
  C Energy LDA        :        -12.791942662 Ha           -348.086470282 eV
  ------------------------------------ 
  End decomposition of the XC Energy 
  ------------------------------------ 

------------------------------------------------------------

------------------------------------------------------------------------------
  Final output of selected total energy values:

  The following output summarizes some interesting total energy values
  at the end of a run (AFTER all relaxation, molecular dynamics, etc.).

  | Total energy of the DFT / Hartree-Fock s.c.f. calculation      :         -31390.077992397 eV
  | Final zero-broadening corrected energy (caution - metals only) :         -31390.077992397 eV
  | For reference only, the value of 1 Hartree used in FHI-aims is :             27.211384500 eV

  Before relying on these values, please be sure to understand exactly which
  total energy value is referred to by a given number. Different objects may
  all carry the same name 'total energy'. Definitions:

  Total energy of the DFT / Hartree-Fock s.c.f. calculation:
  | Note that this energy does not include ANY quantities calculated after the
  | s.c.f. cycle, in particular not ANY RPA, MP2, etc. many-body perturbation terms.
  | Scalar relativistic effects have been included in the 'scaled ZORA' approximation.

  Final zero-broadening corrected energy:
  | For metallic systems only, a broadening of the occupation numbers at the Fermi
  | level can be extrapolated back to zero broadening by an electron-gas inspired
  | formula. For all systems that are not real metals, this value can be
  | meaningless and should be avoided.

------------------------------------------------------------------------------
  Methods described in the following list of references were used in this FHI-aims run.
  If you publish the results, please make sure to cite these reference if they apply.
  FHI-aims is an academic code, and for our developers (often, Ph.D. students
  and postdocs), scientific credit in the community is essential.
  Thank you for helping us!

  For any use of FHI-aims, please cite:

    Volker Blum, Ralf Gehrke, Felix Hanke, Paula Havu, Ville Havu,
    Xinguo Ren, Karsten Reuter, and Matthias Scheffler
    'Ab initio molecular simulations with numeric atom-centered orbitals'
    Computer Physics Communications 180, 2175-2196 (2009)
    http://dx.doi.org/10.1016/j.cpc.2009.06.022


  The scalable eigensolver library ELPA was used in your run.
  ELPA is essential especially for large systems on hundreds or thousands of CPUs.
  For ELPA, please cite:

    Andreas Marek, Volker Blum, Rainer Johanni, Ville Havu, Bruno Lang,
    Thomas Auckenthaler, Alexander Heinecke, Hans-Joachim Bungartz, and Hermann Lederer,
    'The ELPA Library - Scalable Parallel Eigenvalue Solutions
    for Electronic Structure Theory and Computational Science'
    The Journal of Physics: Condensed Matter 26, 213201 (2014).
    http://dx.doi.org/10.1088/0953-8984/26/21/213201


  The ELSI infrastructure was used in your run to solve the Kohn-Sham electronic structure.
  Please check out http://elsi-interchange.org to learn more.
  If scalability is important for your project, please acknowledge ELSI by citing:

    V. W-z. Yu, F. Corsetti, A. Garcia, W. P. Huhn, M. Jacquelin, W. Jia,
    B. Lange, L. Lin, J. Lu, W. Mi, A. Seifitokaldani, A. Vazquez-Mayagoitia,
    C. Yang, H. Yang, and V. Blum
    'ELSI: A unified software interface for Kohn-Sham electronic structure solvers'
    Computer Physics Communications 222, 267-285 (2018).
    http://dx.doi.org/10.1016/j.cpc.2017.09.007


  For the real-space grid partitioning and parallelization used in this calculation, please cite:

    Ville Havu, Volker Blum, Paula Havu, and Matthias Scheffler,
    'Efficient O(N) integration for all-electron electronic structure calculation'
    'using numerically tabulated basis functions'
    Journal of Computational Physics 228, 8367-8379 (2009).
    http://dx.doi.org/10.1016/j.jcp.2009.08.008

  Of course, there are many other important community references, e.g., those cited in the
  above references. Our list is limited to references that describe implementations in the
  FHI-aims code. The reason is purely practical (length of this list) - please credit others as well.

------------------------------------------------------------
          Leaving FHI-aims.
          Date     :  20210620, Time     :  174737.232

          Computational steps:
          | Number of self-consistency cycles          :           18
          | Number of SCF (re)initializations          :            1

          Detailed time accounting                     :  max(cpu_time)    wall_clock(cpu1)
          | Total time                                 :      109.207 s         109.395 s
          | Preparation time                           :        0.187 s           0.178 s
          | Boundary condition initalization           :        0.001 s           0.004 s
          | Grid partitioning                          :        0.822 s           0.826 s
          | Preloading free-atom quantities on grid    :        0.014 s           0.016 s
          | Free-atom superposition energy             :        0.070 s           0.070 s
          | Total time for integrations                :       63.881 s          63.890 s
          | Total time for solution of K.-S. equations :        2.903 s           2.927 s
          | Total time for density update              :       24.434 s          24.387 s
          | Total time for mixing                      :        0.139 s           0.140 s
          | Total time for Hartree multipole update    :        0.161 s           0.168 s
          | Total time for Hartree multipole sum       :        9.457 s           9.463 s
          | Total time for total energy evaluation     :        0.007 s           0.033 s
          | Total time for scaled ZORA corrections     :        6.074 s           6.086 s

          Partial memory accounting:
          | Residual value for overall tracked memory usage across tasks :     0.000000 MB (should be 0.000000 MB)
          | Peak values for overall tracked memory usage (after allocating zora_vector2):
          |   Minimum:       30.821 MB (on task 31)
          |   Maximum:       38.519 MB (on task 14)
          |   Average:       34.222 MB
          | Largest tracked array allocation (hamiltonian_shell):
          |   Minimum:        9.314 MB (on task  1)
          |   Maximum:        9.314 MB (on task  1)
          |   Average:        9.314 MB
          Note:  These values currently only include a subset of arrays which are explicitly tracked.
          The "true" memory usage will be greater.

          Have a nice day.
------------------------------------------------------------
