  MPI-parallelism will be employed.
------------------------------------------------------------
          Invoking FHI-aims ...
          Version 180607
          Git rev. (modified): 6724847 Fix JSON memory corruption in scf_solver
          Compiled on 2018/06/27 at 16:00:31 on host coe.psc.edu.

          When using FHI-aims, please cite the following reference:

          Volker Blum, Ralf Gehrke, Felix Hanke, Paula Havu,
          Ville Havu, Xinguo Ren, Karsten Reuter, and Matthias Scheffler,
          'Ab Initio Molecular Simulations with Numeric Atom-Centered Orbitals',
          Computer Physics Communications 180, 2175-2196 (2009)

          For any questions about FHI-aims, please visit the aimsclub website
          with its forums and wiki. Contributions to both the forums and the
          wiki are warmly encouraged - they are for you, and everyone is welcome there.

------------------------------------------------------------



  Date     :  20210620, Time     :  174711.032
  Time zero on CPU 1             :   0.245084000000000E+00  s.
  Internal wall clock time zero  :           393443231.032  s.

  FHI-aims created a unique identifier for this run for later identification
  aims_uuid : 699984FA-21F1-4027-A449-94BBA28F0542

  Using       56 parallel tasks.
  Task        0 on host d021 reporting.
  Task        1 on host d021 reporting.
  Task        2 on host d021 reporting.
  Task        3 on host d021 reporting.
  Task        4 on host d021 reporting.
  Task        5 on host d021 reporting.
  Task        6 on host d021 reporting.
  Task        7 on host d021 reporting.
  Task        8 on host d021 reporting.
  Task        9 on host d021 reporting.
  Task       10 on host d021 reporting.
  Task       11 on host d021 reporting.
  Task       12 on host d021 reporting.
  Task       13 on host d021 reporting.
  Task       14 on host d021 reporting.
  Task       15 on host d021 reporting.
  Task       16 on host d021 reporting.
  Task       17 on host d021 reporting.
  Task       18 on host d021 reporting.
  Task       19 on host d021 reporting.
  Task       20 on host d021 reporting.
  Task       21 on host d021 reporting.
  Task       22 on host d021 reporting.
  Task       23 on host d021 reporting.
  Task       24 on host d021 reporting.
  Task       25 on host d021 reporting.
  Task       26 on host d021 reporting.
  Task       27 on host d021 reporting.
  Task       28 on host d021 reporting.
  Task       29 on host d021 reporting.
  Task       30 on host d021 reporting.
  Task       31 on host d021 reporting.
  Task       32 on host d021 reporting.
  Task       33 on host d021 reporting.
  Task       34 on host d021 reporting.
  Task       35 on host d021 reporting.
  Task       36 on host d021 reporting.
  Task       37 on host d021 reporting.
  Task       38 on host d021 reporting.
  Task       39 on host d021 reporting.
  Task       40 on host d021 reporting.
  Task       41 on host d021 reporting.
  Task       42 on host d021 reporting.
  Task       43 on host d021 reporting.
  Task       44 on host d021 reporting.
  Task       45 on host d021 reporting.
  Task       46 on host d021 reporting.
  Task       47 on host d021 reporting.
  Task       48 on host d021 reporting.
  Task       49 on host d021 reporting.
  Task       50 on host d021 reporting.
  Task       51 on host d021 reporting.
  Task       52 on host d021 reporting.
  Task       53 on host d021 reporting.
  Task       54 on host d021 reporting.
  Task       55 on host d021 reporting.

  Performing system and environment tests:
  *** Environment variable OMP_NUM_THREADS is not set
  *** For performance reasons you might want to set it to 1
  | Stacksize not measured: no C compiler
  | Checking for scalapack...
  | Testing pdtran()...
  | All pdtran() tests passed.

  Obtaining array dimensions for all initial allocations:
  
  -----------------------------------------------------------------------
  Parsing control.in (first pass over file, find array dimensions only).
  The contents of control.in will be repeated verbatim below
  unless switched off by setting 'verbatim_writeout .false.' .
  in the first line of control.in .
  -----------------------------------------------------------------------
  
  #===============================================================================
  # FHI-aims file: ./Runs/es/control.in
  # Created using the Atomic Simulation Environment (ASE)
  # Mon Jan 13 16:04:38 2020
  #===============================================================================
  xc                                 pbe
  relativistic                       zora scalar 1e-12
  occupation_type                    gaussian 0.0001
  load_balancing                     .true.
  KS_method                          scalapack_fast
  mixer                              pulay
  n_max_pulay                        5
  charge_mix_param                   0.4
  sc_accuracy_etot                   1e-6
  sc_accuracy_eev                    1e-4
  sc_accuracy_rho                    1e-6
  sc_iter_limit                      100
  prodbas_threshold                  1e-4
  basis_threshold                    1e-5
  override_illconditioning           .true.
  use_logsbt                         .true.
  spin                               none
  charge                             0
  #===============================================================================
  
  ################################################################################
  #
  #  FHI-aims code project
  # Volker Blum, Fritz Haber Institute Berlin, 2009
  #
  #  Suggested "tight" defaults for H atom (to be pasted into control.in file)
  #
  ################################################################################
    species        H
  #     global species definitions
      nucleus             1
      mass                1.00794
  #
      l_hartree           6
  #
      cut_pot             4.0  2.0  1.0
      basis_dep_cutoff    1e-4
  #
      radial_base         24 7.0
      radial_multiplier   2
      angular_grids       specified
        division   0.1930   50
        division   0.3175  110
        division   0.4293  194
        division   0.5066  302
        division   0.5626  434
  #      division   0.5922  590
  #      division   0.6227  974
  #      division   0.6868 1202
  #      outer_grid  770
        outer_grid  434
  ################################################################################
  #
  #  Definition of "minimal" basis
  #
  ################################################################################
  #     valence basis states
      valence      1  s   1.
  #     ion occupancy
      ion_occ      1  s   0.5
  ################################################################################
  #
  #  Suggested additional basis functions. For production calculations,
  #  uncomment them one after another (the most important basis functions are
  #  listed first).
  #
  #  Basis constructed for dimers: 0.5 A, 0.7 A, 1.0 A, 1.5 A, 2.5 A
  #
  ################################################################################
  #  "First tier" - improvements: -1014.90 meV to -62.69 meV
       hydro 2 s 2.1
       hydro 2 p 3.5
  #  "Second tier" - improvements: -12.89 meV to -1.83 meV
       hydro 1 s 0.85
       hydro 2 p 3.7
       hydro 2 s 1.2
       hydro 3 d 7
  #  "Third tier" - improvements: -0.25 meV to -0.12 meV
  #     hydro 4 f 11.2
  #     hydro 3 p 4.8
  #     hydro 4 d 9
  #     hydro 3 s 3.2
  ################################################################################
  #
  # For methods that use the localized form of the "resolution of identity" for
  # the two-electron Coulomb operator (RI_method LVL), particularly Hartree-Fock and
  # hybrid density functional calculations, the highest accuracy can be obtained by
  # uncommenting the line beginning with "for_aux"  below, thus adding an extra g radial
  # function to the construction of the product basis set for the expansion.
  # See Ref. New J. Phys. 17, 093020 (2015) for more information, particularly Figs. 1 and 6.
  #
  ################################################################################
  #
  # for_aux hydro 5 g 6.0
  ################################################################################
  #
  #  FHI-aims code project
  # Volker Blum, Fritz Haber Institute Berlin, 2009
  #
  #  Suggested "tight" defaults for C atom (to be pasted into control.in file)
  #
  ################################################################################
    species        C
  #     global species definitions
      nucleus             6
      mass                12.0107
  #
      l_hartree           6
  #
      cut_pot             4.0  2.0  1.0
      basis_dep_cutoff    1e-4
  #
      radial_base         34 7.0
      radial_multiplier   2
      angular_grids specified
        division   0.2187   50
        division   0.4416  110
        division   0.6335  194
        division   0.7727  302
        division   0.8772  434
  #      division   0.9334  590
  #      division   0.9924  770
  #      division   1.0230  974
  #      division   1.5020 1202
  #     outer_grid  974
        outer_grid  434
  ################################################################################
  #
  #  Definition of "minimal" basis
  #
  ################################################################################
  #     valence basis states
      valence      2  s   2.
      valence      2  p   2.
  #     ion occupancy
      ion_occ      2  s   1.
      ion_occ      2  p   1.
  ################################################################################
  #
  #  Suggested additional basis functions. For production calculations,
  #  uncomment them one after another (the most important basis functions are
  #  listed first).
  #
  #  Constructed for dimers: 1.0 A, 1.25 A, 1.5 A, 2.0 A, 3.0 A
  #
  ################################################################################
  #  "First tier" - improvements: -1214.57 meV to -155.61 meV
       hydro 2 p 1.7
       hydro 3 d 6
       hydro 2 s 4.9
  #  "Second tier" - improvements: -67.75 meV to -5.23 meV
       hydro 4 f 9.8
       hydro 3 p 5.2
       hydro 3 s 4.3
       hydro 5 g 14.4
       hydro 3 d 6.2
  #  "Third tier" - improvements: -2.43 meV to -0.60 meV
  #     hydro 2 p 5.6
  #     hydro 2 s 1.4
  #     hydro 3 d 4.9
  #     hydro 4 f 11.2
  #  "Fourth tier" - improvements: -0.39 meV to -0.18 meV
  #     hydro 2 p 2.1
  #     hydro 5 g 16.4
  #     hydro 4 d 13.2
  #     hydro 3 s 13.6
  #     hydro 4 f 17.6
  #  Further basis functions - improvements: -0.08 meV and below
  #     hydro 3 s 2
  #     hydro 3 p 6
  #     hydro 4 d 20
  ################################################################################
  #
  # For methods that use the localized form of the "resolution of identity" for
  # the two-electron Coulomb operator (RI_method LVL), particularly Hartree-Fock and
  # hybrid density functional calculations, the highest accuracy can be obtained by
  # uncommenting the line beginning with "for_aux"  below, thus adding an extra g radial
  # function to the construction of the product basis set for the expansion.
  # See Ref. New J. Phys. 17, 093020 (2015) for more information, particularly Figs. 1 and 6.
  #
  ################################################################################
  #
  # for_aux hydro 5 g 6.0
  
  -----------------------------------------------------------------------
  Completed first pass over input file control.in .
  -----------------------------------------------------------------------
  
  
  -----------------------------------------------------------------------
  Parsing geometry.in (first pass over file, find array dimensions only).
  The contents of geometry.in will be repeated verbatim below
  unless switched off by setting 'verbatim_writeout .false.' .
  in the first line of geometry.in .
  -----------------------------------------------------------------------
  
  #=======================================================
  # FHI-aims file: geometry.in
  # Created using the Atomic Simulation Environment (ASE)
  # Sun Jun 20 15:47:02 2021
  #=======================================================
  atom 4.8387750000000000 19.6571239999999996 100.0195439999999962 C
  atom 4.5595350000000003 18.3775550000000010 100.1943080000000066 C
  atom 4.1097409999999996 20.4534839999999996 100.1557739999999939 H
  atom 6.1601670000000004 19.8933290000000014 100.0203219999999931 C
  atom 3.5406759999999999 18.0466020000000000 100.4126660000000015 H
  atom 5.4944129999999998 17.3450389999999999 99.9280750000000069 C
  atom 7.1731319999999998 18.9473500000000001 99.6661239999999964 C
  atom 6.5070290000000002 20.9290249999999993 100.1137379999999979 H
  atom 5.1397659999999998 16.3197399999999995 100.0020289999999932 H
  atom 6.7301679999999999 17.6278860000000002 99.6007330000000053 C
  atom 8.2127689999999998 19.2417230000000004 99.5699840000000052 H
  atom 7.7551360000000003 16.5862160000000003 99.3395600000000059 C
  atom 8.3465349999999994 16.4046699999999994 98.1033670000000058 C
  atom 8.1350180000000005 15.6635899999999992 100.4044920000000047 C
  atom 8.2804579999999994 17.5440089999999991 97.0505009999999970 C
  atom 9.3160959999999999 15.4122909999999997 97.8597089999999952 C
  atom 7.6098270000000001 15.8182189999999991 101.7247590000000059 C
  atom 9.1054440000000003 14.6690330000000007 100.1452649999999949 C
  atom 8.1958920000000006 16.8564790000000002 95.6375969999999995 C
  atom 7.6123079999999996 18.3641579999999998 97.2778109999999998 H
  atom 9.7326720000000009 15.1371590000000005 96.5036329999999936 C
  atom 9.6568649999999998 14.4884120000000003 98.8502979999999951 C
  atom 6.9145580000000004 16.6270859999999985 101.9224870000000038 H
  atom 7.9422439999999996 14.9208420000000004 102.7441510000000022 C
  atom 9.3566620000000000 13.7250250000000005 101.2172029999999978 C
  atom 7.5866689999999997 17.5474819999999987 94.5539820000000049 C
  atom 9.1861239999999995 15.8446840000000009 95.3888800000000003 C
  atom 10.4826180000000004 14.3700340000000004 96.3413249999999977 H
  atom 10.6848720000000004 13.4479520000000008 98.5875680000000045 C
  atom 7.3837729999999997 15.0984719999999992 104.0807649999999995 C
  atom 8.8725450000000006 13.8694500000000005 102.4806430000000006 C
  atom 10.0369829999999993 12.9027960000000004 101.0066300000000012 H
  atom 6.5810700000000004 18.6021500000000017 94.8789890000000042 C
  atom 7.9903139999999997 17.2489360000000005 93.2485060000000061 C
  atom 9.3324759999999998 15.3636850000000003 94.0686129999999991 C
  atom 10.3679679999999994 12.1902469999999994 98.3660969999999963 C
  atom 11.8825880000000002 13.5341970000000007 99.0238949999999960 C
  atom 6.4725979999999996 16.2779589999999992 104.3508910000000043 C
  atom 7.7821480000000003 14.2466439999999999 105.0779710000000051 C
  atom 9.2178810000000002 12.9648260000000004 103.5397360000000049 C
  atom 5.2614799999999997 18.4616550000000004 94.3258940000000052 C
  atom 6.8296380000000001 19.6644089999999991 95.6185250000000053 C
  atom 7.7924509999999998 18.2259029999999989 92.1154590000000013 C
  atom 8.7010670000000001 16.0458320000000008 92.9705960000000005 C
  atom 10.2964249999999993 14.2800300000000000 93.9024119999999982 C
  atom 9.3229500000000005 11.9061269999999997 98.2123509999999982 H
  atom 11.3369339999999994 11.1705260000000006 98.1053129999999953 C
  atom 12.8432809999999993 12.5134840000000001 98.8993410000000068 C
  atom 12.2493970000000001 14.4498700000000007 99.4925269999999955 H
  atom 5.1656440000000003 16.2680720000000001 103.8153109999999941 C
  atom 6.9022189999999997 17.3451920000000008 105.0670729999999935 C
  atom 7.3430380000000000 14.5000370000000007 106.5072219999999987 C
  atom 8.6423670000000001 13.0949729999999995 104.8183549999999968 C
  atom 10.1438330000000008 11.8258209999999995 103.2567659999999989 C
  atom 5.0513750000000002 17.5867080000000016 93.7140250000000066 H
  atom 4.2753610000000002 19.3232259999999982 94.6466190000000012 C
  atom 5.8461449999999999 20.6358800000000002 95.9085010000000011 C
  atom 7.8391810000000000 19.8486200000000004 95.9882929999999988 H
  atom 7.6270270000000000 19.5886850000000017 92.2968400000000031 C
  atom 7.9283299999999999 17.7274619999999992 90.7932459999999963 C
  atom 8.7006289999999993 15.4912109999999998 91.6044009999999957 C
  atom 10.0184890000000006 12.9833449999999999 94.3002050000000054 C
  atom 11.4938739999999999 14.5262370000000001 93.2130870000000016 C
  atom 10.9356729999999995 10.2142859999999995 97.7624019999999945 H
  atom 12.5432819999999996 11.4019969999999997 98.2026199999999960 C
  atom 13.8503710000000009 12.7265049999999995 99.2535400000000010 H
  atom 4.7990079999999997 15.4310919999999996 103.2256280000000004 H
  atom 4.3344030000000000 17.3609319999999983 104.1134610000000009 C
  atom 6.0282470000000004 18.4127800000000015 105.3192939999999993 C
  atom 7.9128980000000002 17.3662260000000011 105.4749860000000012 H
  atom 6.0369529999999996 14.6852400000000003 106.8968409999999949 C
  atom 8.3702039999999993 14.6803749999999997 107.4542179999999973 C
  atom 8.8483909999999995 12.0714459999999999 105.8805629999999951 C
  atom 9.7271789999999996 10.4930640000000004 103.2999709999999993 C
  atom 11.4858560000000001 12.1217500000000005 102.9920900000000046 C
  atom 3.2706050000000002 19.1712080000000000 94.2585569999999962 H
  atom 4.5688659999999999 20.4483069999999998 95.4141800000000018 C
  atom 6.1013039999999998 21.5156109999999998 96.4950699999999983 H
  atom 7.5040620000000002 20.4868850000000009 91.1894819999999982 C
  atom 7.5950069999999998 20.0153609999999986 93.2917110000000065 H
  atom 7.7324370000000000 18.6170499999999990 89.6528040000000033 C
  atom 8.2620410000000000 16.3725430000000003 90.5636010000000056 C
  atom 8.9378030000000006 14.2041100000000000 91.2719989999999939 C
  atom 9.0510619999999999 12.7783770000000008 94.7641660000000030 H
  atom 10.9361630000000005 11.9663000000000004 94.1857710000000026 C
  atom 12.4332539999999998 13.4442120000000003 93.0394900000000007 C
  atom 11.7291720000000002 15.5160440000000008 92.8269710000000003 H
  atom 13.3162719999999997 10.6707389999999993 97.9601300000000066 H
  atom 3.3188010000000001 17.3399490000000007 103.7094400000000007 H
  atom 4.7521040000000001 18.4079569999999997 104.8203019999999981 C
  atom 6.3878480000000000 19.2643650000000015 105.8953539999999975 H
  atom 5.2404529999999996 14.5699430000000003 106.1611970000000014 H
  atom 5.7146059999999999 15.0162689999999994 108.1937539999999984 C
  atom 8.0359510000000007 15.0430480000000006 108.7542449999999974 C
  atom 9.4092310000000001 14.5699509999999997 107.1541220000000010 H
  atom 7.7538119999999999 11.3981960000000004 106.4262630000000058 C
  atom 10.1408819999999995 11.7264250000000008 106.2779660000000064 C
  atom 8.6949880000000004 10.2378090000000004 103.5307839999999970 H
  atom 10.6636290000000002 9.4853950000000005 103.0243959999999959 C
  atom 12.3947260000000004 11.1262240000000006 102.7157370000000043 C
  atom 11.8094859999999997 13.1628439999999998 102.9858629999999948 H
  atom 3.7864680000000002 21.1709280000000000 95.6422680000000014 H
  atom 7.4872430000000003 20.0233080000000001 89.9326599999999985 C
  atom 7.3919389999999998 21.5502089999999988 91.4016120000000001 H
  atom 7.7795199999999998 18.1337490000000017 88.3952029999999951 C
  atom 8.2162769999999998 15.8372430000000008 89.2343819999999965 C
  atom 8.9151530000000001 13.7345469999999992 89.9455039999999997 C
  atom 9.2030870000000000 13.4806469999999994 92.0348890000000068 H
  atom 10.6837280000000003 10.9766689999999993 94.5633239999999944 H
  atom 12.1342990000000004 12.1931150000000006 93.5828549999999950 C
  atom 13.3684820000000002 13.6246930000000006 92.5155869999999965 H
  atom 4.0892910000000002 19.2504419999999996 105.0242580000000032 H
  atom 4.6732680000000002 15.1670189999999998 108.4739990000000063 H
  atom 6.7072380000000003 15.1998750000000005 109.1411389999999955 C
  atom 8.8273969999999995 15.2174709999999997 109.4852180000000033 H
  atom 6.7544990000000000 11.6514039999999994 106.0740100000000012 H
  atom 7.9296889999999998 10.4302709999999994 107.3569109999999966 C
  atom 10.2995190000000001 10.7410940000000004 107.2214589999999959 C
  atom 11.0017689999999995 12.2359840000000002 105.8525379999999956 H
  atom 10.3361140000000002 8.4456609999999994 103.0407440000000037 H
  atom 11.9514390000000006 9.7898069999999997 102.7640020000000050 C
  atom 13.4314590000000003 11.3656229999999994 102.4884270000000015 H
  atom 7.3494750000000000 20.6899319999999989 89.0798580000000015 H
  atom 7.6640069999999998 18.8120389999999986 87.5497960000000006 H
  atom 8.0872150000000005 16.8142730000000000 88.1616649999999993 C
  atom 8.6203059999999994 14.4920480000000005 88.9611430000000070 C
  atom 9.1800300000000004 12.6857140000000008 89.7902019999999936 H
  atom 12.8619599999999998 11.3861030000000003 93.4847690000000000 H
  atom 6.4558330000000002 15.4841300000000004 110.1620879999999971 H
  atom 7.0629039999999996 9.9170090000000002 107.7772789999999929 H
  atom 9.1928169999999998 10.0858720000000002 107.8068600000000004 C
  atom 11.2990309999999994 10.4761640000000007 107.5670949999999948 H
  atom 12.6660819999999994 8.9924320000000009 102.5592670000000055 H
  atom 8.1520469999999996 16.4492809999999992 87.1372130000000027 H
  atom 8.6467089999999995 14.1618519999999997 87.9234569999999991 H
  atom 9.3377579999999991 9.3384680000000007 108.5802589999999981 H
  
  -----------------------------------------------------------------------
  Completed first pass over input file geometry.in .
  -----------------------------------------------------------------------
  

  Basic array size parameters:
  | Number of species                 :        2
  | Number of atoms                   :      136
  | Max. basis fn. angular momentum   :        4
  | Max. atomic/ionic basis occupied n:        2
  | Max. number of basis fn. types    :        2
  | Max. radial fns per species/type  :        8
  | Max. logarithmic grid size        :     1277
  | Max. radial integration grid size :       69
  | Max. angular integration grid size:      434
  | Max. angular grid division number :        8
  | Radial grid for Hartree potential :     1277
  | Number of spin channels           :        1

------------------------------------------------------------
          Reading file control.in.
------------------------------------------------------------
  XC: Using PBE gradient-corrected functionals.
  Scalar relativistic treatment of kinetic energy: ZORA.
  Threshold value for ZORA:   0.100000E-11
  Occupation type: Gaussian broadening, width =   0.100000E-03 eV.
  Since 'load_balancing .true.' is present in control.in, automatically turning on 'use_local_index .true.'.
  Using load balancing for integrations.
  Kohn-Sham electronic structure solved by the ELSI library.
  Using pulay charge density mixing.
  Pulay mixing - number of memorized iterations:    5
  Charge density mixing - mixing parameter:     0.4000
  Convergence accuracy of total energy:  0.1000E-05
  Convergence accuracy of sum of eigenvalues:  0.1000E-03
  Convergence accuracy of self-consistent charge density:  0.1000E-05
  Maximum number of s.-c. iterations  :   100
  * Ignoring prodbas_threshold
  Threshold for basis singularities:  0.1000E-04
  override_illconditioning: Explicitly overriding any built-in checks for an ill-conditioned overlap matrix.
  *** WARNING: If you use this flag, you should really know what you are doing.
  *** DO NOT keep this flag set by default in all your control.in files.
  Using 1D integrations for auxiliary 2-center integrals.
  Spin treatment: No spin polarisation.
  Charge =   0.000000E+00: Neutral system requested explicitly.
 
  Reading configuration options for species H                   .
  | Found nuclear charge :   1.0000
  | Found atomic mass :    1.00794000000000      amu
  | Found l_max for Hartree potential  :   6
  | Found cutoff potl. onset [A], width [A], scale factor :    4.00000    2.00000    1.00000
  | Threshold for basis-dependent cutoff potential is   0.100000E-03
  | Found data for basic radial integration grid :    24 points, outermost radius =    7.000 A
  | Found multiplier for basic radial grid :   2
  | Found angular grid specification: user-specified.
  | Specified grid contains     6 separate shells.
  | Check grid settings after all constraints further below.
  | Found free-atom valence shell :  1 s   1.000
  | No ionic wave fns used. Skipping ion_occ.
  | Found hydrogenic basis function :  2 s   2.100
  | Found hydrogenic basis function :  2 p   3.500
  | Found hydrogenic basis function :  1 s   0.850
  | Found hydrogenic basis function :  2 p   3.700
  | Found hydrogenic basis function :  2 s   1.200
  | Found hydrogenic basis function :  3 d   7.000
  Species H                   : Missing cutoff potential type.
  Defaulting to exp(1/x)/(1-x)^2 type cutoff potential.
  Species H : No 'logarithmic' tag. Using default grid for free atom:
  | Default logarithmic grid data [bohr] : 0.1000E-03 0.1000E+03 0.1012E+01
  Species H : On-site basis accuracy parameter (for Gram-Schmidt orthonormalisation) not specified.
  Using default value basis_acc =  0.1000000E-03.
  Species H                   : Using default innermost maximum threshold i_radial=  2 for radial functions.
  Species H                   : Default cutoff onset for free atom density etc. : 0.40000000E+01 AA.
  Species H                   : Basic radial grid will be enhanced according to radial_multiplier =   2, to contain    49 grid points.
 
  Reading configuration options for species C                   .
  | Found nuclear charge :   6.0000
  | Found atomic mass :    12.0107000000000      amu
  | Found l_max for Hartree potential  :   6
  | Found cutoff potl. onset [A], width [A], scale factor :    4.00000    2.00000    1.00000
  | Threshold for basis-dependent cutoff potential is   0.100000E-03
  | Found data for basic radial integration grid :    34 points, outermost radius =    7.000 A
  | Found multiplier for basic radial grid :   2
  | Found angular grid specification: user-specified.
  | Specified grid contains     6 separate shells.
  | Check grid settings after all constraints further below.
  | Found free-atom valence shell :  2 s   2.000
  | Found free-atom valence shell :  2 p   2.000
  | No ionic wave fns used. Skipping ion_occ.
  | No ionic wave fns used. Skipping ion_occ.
  | Found hydrogenic basis function :  2 p   1.700
  | Found hydrogenic basis function :  3 d   6.000
  | Found hydrogenic basis function :  2 s   4.900
  | Found hydrogenic basis function :  4 f   9.800
  | Found hydrogenic basis function :  3 p   5.200
  | Found hydrogenic basis function :  3 s   4.300
  | Found hydrogenic basis function :  5 g  14.400
  | Found hydrogenic basis function :  3 d   6.200
  Species C                   : Missing cutoff potential type.
  Defaulting to exp(1/x)/(1-x)^2 type cutoff potential.
  Species C : No 'logarithmic' tag. Using default grid for free atom:
  | Default logarithmic grid data [bohr] : 0.1000E-03 0.1000E+03 0.1012E+01
  Species C : On-site basis accuracy parameter (for Gram-Schmidt orthonormalisation) not specified.
  Using default value basis_acc =  0.1000000E-03.
  Species C                   : Using default innermost maximum threshold i_radial=  2 for radial functions.
  Species C                   : Default cutoff onset for free atom density etc. : 0.40000000E+01 AA.
  Species C                   : Basic radial grid will be enhanced according to radial_multiplier =   2, to contain    69 grid points.
 
  Finished reading input file 'control.in'. Consistency checks are next.
 
  MPI_IN_PLACE appears to work with this MPI implementation.
  | Keeping use_mpi_in_place .true. (see manual).
  Target number of points in a grid batch is not set. Defaulting to  100
  Method for grid partitioning is not set. Defaulting to parallel hash+maxmin partitioning.
  Batch size limit is not set. Defaulting to    200
  By default, will store active basis functions for each batch.
  If in need of memory, prune_basis_once .false. can be used to disable this option.
  communication_type for Hartree potential was not specified.
  Defaulting to calc_hartree .
  Pulay mixer: Number of initial linear mixing iterations not set.
  Defaulting to    0 iterations.
  Work space size for distributed Hartree potential not set.
  Defaulting to   0.200000E+03 MB.
  Algorithm-dependent basis array size parameters:
  | n_max_pulay                         :        5
  Presetting      1001 iterations before the initial mixing cycle
  is restarted anyway using the sc_init_iter criterion / keyword.
  Presetting a factor      1.000 between actual scf density residual
  and density convergence criterion sc_accuracy_rho below which sc_init_iter
  takes no effect.
  Calculation of forces was not defined in control.in. No forces will be calculated.
  Geometry relaxation not requested: no relaxation will be performed.
  No accuracy limit for integral partition fn. given. Defaulting to  0.1000E-14.
  No threshold value for u(r) in integrations given. Defaulting to  0.1000E-05.
  No accuracy for occupation numbers given. Defaulting to  0.1000E-12.
  No threshold value for occupation numbers given. Defaulting to  0.0000E+00.
  No accuracy for fermi level given. Defaulting to  0.1000E-19.
  Maximum # of iterations to find E_F not set. Defaulting to  200.
  Will not use alltoall communication since running on < 1024 CPUs.
  partition_type (choice of integration weights) for integrals was not specified.
  | Using a version of the partition function of Stratmann and coworkers ('stratmann_sparse').
  | At each grid point, the set of atoms used to build the partition table is smoothly restricted to
  | only those atoms whose free-atom density would be non-zero at that grid point.
  Partitioning for Hartree potential was not defined. Using partition_type for integrals.
  | Adjusted default value of keyword multip_moments_threshold to:       0.10000000E-11
  | This value may affect high angular momentum components of the Hartree potential in periodic systems.
  No q(lm)/r^(l+1) cutoff set for long-range Hartree potential.
  | Using default value of  0.100000E-09 .
  | Verify using the multipole_threshold keyword.
  Defaulting to new monopole extrapolation.
  Density update method: automatic selection selected.
 * Warning: use_local_index and/or load_balancing needs packed_matrix_format = index
 * Changing the default setting to packed_matrix_format = index
------------------------------------------------------------


------------------------------------------------------------
          Reading geometry description geometry.in.
------------------------------------------------------------
  Input structure read successfully.
  The structure contains      136 atoms,  and a total of        556.000 electrons.

  Input geometry:
  | No unit cell requested.
  | Atomic structure:
  |       Atom                x [A]            y [A]            z [A]
  |    1: Species C             4.83877500       19.65712400      100.01954400
  |    2: Species C             4.55953500       18.37755500      100.19430800
  |    3: Species H             4.10974100       20.45348400      100.15577400
  |    4: Species C             6.16016700       19.89332900      100.02032200
  |    5: Species H             3.54067600       18.04660200      100.41266600
  |    6: Species C             5.49441300       17.34503900       99.92807500
  |    7: Species C             7.17313200       18.94735000       99.66612400
  |    8: Species H             6.50702900       20.92902500      100.11373800
  |    9: Species H             5.13976600       16.31974000      100.00202900
  |   10: Species C             6.73016800       17.62788600       99.60073300
  |   11: Species H             8.21276900       19.24172300       99.56998400
  |   12: Species C             7.75513600       16.58621600       99.33956000
  |   13: Species C             8.34653500       16.40467000       98.10336700
  |   14: Species C             8.13501800       15.66359000      100.40449200
  |   15: Species C             8.28045800       17.54400900       97.05050100
  |   16: Species C             9.31609600       15.41229100       97.85970900
  |   17: Species C             7.60982700       15.81821900      101.72475900
  |   18: Species C             9.10544400       14.66903300      100.14526500
  |   19: Species C             8.19589200       16.85647900       95.63759700
  |   20: Species H             7.61230800       18.36415800       97.27781100
  |   21: Species C             9.73267200       15.13715900       96.50363300
  |   22: Species C             9.65686500       14.48841200       98.85029800
  |   23: Species H             6.91455800       16.62708600      101.92248700
  |   24: Species C             7.94224400       14.92084200      102.74415100
  |   25: Species C             9.35666200       13.72502500      101.21720300
  |   26: Species C             7.58666900       17.54748200       94.55398200
  |   27: Species C             9.18612400       15.84468400       95.38888000
  |   28: Species H            10.48261800       14.37003400       96.34132500
  |   29: Species C            10.68487200       13.44795200       98.58756800
  |   30: Species C             7.38377300       15.09847200      104.08076500
  |   31: Species C             8.87254500       13.86945000      102.48064300
  |   32: Species H            10.03698300       12.90279600      101.00663000
  |   33: Species C             6.58107000       18.60215000       94.87898900
  |   34: Species C             7.99031400       17.24893600       93.24850600
  |   35: Species C             9.33247600       15.36368500       94.06861300
  |   36: Species C            10.36796800       12.19024700       98.36609700
  |   37: Species C            11.88258800       13.53419700       99.02389500
  |   38: Species C             6.47259800       16.27795900      104.35089100
  |   39: Species C             7.78214800       14.24664400      105.07797100
  |   40: Species C             9.21788100       12.96482600      103.53973600
  |   41: Species C             5.26148000       18.46165500       94.32589400
  |   42: Species C             6.82963800       19.66440900       95.61852500
  |   43: Species C             7.79245100       18.22590300       92.11545900
  |   44: Species C             8.70106700       16.04583200       92.97059600
  |   45: Species C            10.29642500       14.28003000       93.90241200
  |   46: Species H             9.32295000       11.90612700       98.21235100
  |   47: Species C            11.33693400       11.17052600       98.10531300
  |   48: Species C            12.84328100       12.51348400       98.89934100
  |   49: Species H            12.24939700       14.44987000       99.49252700
  |   50: Species C             5.16564400       16.26807200      103.81531100
  |   51: Species C             6.90221900       17.34519200      105.06707300
  |   52: Species C             7.34303800       14.50003700      106.50722200
  |   53: Species C             8.64236700       13.09497300      104.81835500
  |   54: Species C            10.14383300       11.82582100      103.25676600
  |   55: Species H             5.05137500       17.58670800       93.71402500
  |   56: Species C             4.27536100       19.32322600       94.64661900
  |   57: Species C             5.84614500       20.63588000       95.90850100
  |   58: Species H             7.83918100       19.84862000       95.98829300
  |   59: Species C             7.62702700       19.58868500       92.29684000
  |   60: Species C             7.92833000       17.72746200       90.79324600
  |   61: Species C             8.70062900       15.49121100       91.60440100
  |   62: Species C            10.01848900       12.98334500       94.30020500
  |   63: Species C            11.49387400       14.52623700       93.21308700
  |   64: Species H            10.93567300       10.21428600       97.76240200
  |   65: Species C            12.54328200       11.40199700       98.20262000
  |   66: Species H            13.85037100       12.72650500       99.25354000
  |   67: Species H             4.79900800       15.43109200      103.22562800
  |   68: Species C             4.33440300       17.36093200      104.11346100
  |   69: Species C             6.02824700       18.41278000      105.31929400
  |   70: Species H             7.91289800       17.36622600      105.47498600
  |   71: Species C             6.03695300       14.68524000      106.89684100
  |   72: Species C             8.37020400       14.68037500      107.45421800
  |   73: Species C             8.84839100       12.07144600      105.88056300
  |   74: Species C             9.72717900       10.49306400      103.29997100
  |   75: Species C            11.48585600       12.12175000      102.99209000
  |   76: Species H             3.27060500       19.17120800       94.25855700
  |   77: Species C             4.56886600       20.44830700       95.41418000
  |   78: Species H             6.10130400       21.51561100       96.49507000
  |   79: Species C             7.50406200       20.48688500       91.18948200
  |   80: Species H             7.59500700       20.01536100       93.29171100
  |   81: Species C             7.73243700       18.61705000       89.65280400
  |   82: Species C             8.26204100       16.37254300       90.56360100
  |   83: Species C             8.93780300       14.20411000       91.27199900
  |   84: Species H             9.05106200       12.77837700       94.76416600
  |   85: Species C            10.93616300       11.96630000       94.18577100
  |   86: Species C            12.43325400       13.44421200       93.03949000
  |   87: Species H            11.72917200       15.51604400       92.82697100
  |   88: Species H            13.31627200       10.67073900       97.96013000
  |   89: Species H             3.31880100       17.33994900      103.70944000
  |   90: Species C             4.75210400       18.40795700      104.82030200
  |   91: Species H             6.38784800       19.26436500      105.89535400
  |   92: Species H             5.24045300       14.56994300      106.16119700
  |   93: Species C             5.71460600       15.01626900      108.19375400
  |   94: Species C             8.03595100       15.04304800      108.75424500
  |   95: Species H             9.40923100       14.56995100      107.15412200
  |   96: Species C             7.75381200       11.39819600      106.42626300
  |   97: Species C            10.14088200       11.72642500      106.27796600
  |   98: Species H             8.69498800       10.23780900      103.53078400
  |   99: Species C            10.66362900        9.48539500      103.02439600
  |  100: Species C            12.39472600       11.12622400      102.71573700
  |  101: Species H            11.80948600       13.16284400      102.98586300
  |  102: Species H             3.78646800       21.17092800       95.64226800
  |  103: Species C             7.48724300       20.02330800       89.93266000
  |  104: Species H             7.39193900       21.55020900       91.40161200
  |  105: Species C             7.77952000       18.13374900       88.39520300
  |  106: Species C             8.21627700       15.83724300       89.23438200
  |  107: Species C             8.91515300       13.73454700       89.94550400
  |  108: Species H             9.20308700       13.48064700       92.03488900
  |  109: Species H            10.68372800       10.97666900       94.56332400
  |  110: Species C            12.13429900       12.19311500       93.58285500
  |  111: Species H            13.36848200       13.62469300       92.51558700
  |  112: Species H             4.08929100       19.25044200      105.02425800
  |  113: Species H             4.67326800       15.16701900      108.47399900
  |  114: Species C             6.70723800       15.19987500      109.14113900
  |  115: Species H             8.82739700       15.21747100      109.48521800
  |  116: Species H             6.75449900       11.65140400      106.07401000
  |  117: Species C             7.92968900       10.43027100      107.35691100
  |  118: Species C            10.29951900       10.74109400      107.22145900
  |  119: Species H            11.00176900       12.23598400      105.85253800
  |  120: Species H            10.33611400        8.44566100      103.04074400
  |  121: Species C            11.95143900        9.78980700      102.76400200
  |  122: Species H            13.43145900       11.36562300      102.48842700
  |  123: Species H             7.34947500       20.68993200       89.07985800
  |  124: Species H             7.66400700       18.81203900       87.54979600
  |  125: Species C             8.08721500       16.81427300       88.16166500
  |  126: Species C             8.62030600       14.49204800       88.96114300
  |  127: Species H             9.18003000       12.68571400       89.79020200
  |  128: Species H            12.86196000       11.38610300       93.48476900
  |  129: Species H             6.45583300       15.48413000      110.16208800
  |  130: Species H             7.06290400        9.91700900      107.77727900
  |  131: Species C             9.19281700       10.08587200      107.80686000
  |  132: Species H            11.29903100       10.47616400      107.56709500
  |  133: Species H            12.66608200        8.99243200      102.55926700
  |  134: Species H             8.15204700       16.44928100       87.13721300
  |  135: Species H             8.64670900       14.16185200       87.92345700
  |  136: Species H             9.33775800        9.33846800      108.58025900
  |

  | The smallest distance between any two atoms is         1.08200677 AA.
  |
  | The first atom of this pair is atom number                     15 .
  | The second atom of this pair is atom number                    20 .

  Number of empty states per atom not set in control.in - providing a guess from actual geometry.
  | Total number of empty states used during s.c.f. cycle:      330
  If you use a very high smearing, use empty_states (per atom!) in control.in to increase this value.

  Structure-dependent array size parameters: 
  | Maximum number of distinct radial functions  :       18
  | Maximum number of basis functions            :     4056
  | Number of Kohn-Sham states (occupied + empty):      608
------------------------------------------------------------

------------------------------------------------------------
          Preparing all fixed parts of the calculation.
------------------------------------------------------------
  Determining machine precision:
    2.225073858507201E-308
  Setting up grids for atomic and cluster calculations.

  Creating wave function, potential, and density for free atoms.

  Species: H

  List of occupied orbitals and eigenvalues:
    n    l              occ      energy [Ha]    energy [eV]
    1    0           1.0000        -0.238386        -6.4868


  Species: C

  List of occupied orbitals and eigenvalues:
    n    l              occ      energy [Ha]    energy [eV]
    1    0           2.0000       -10.049212      -273.4530
    2    0           2.0000        -0.504761       -13.7352
    2    1           2.0000        -0.193631        -5.2690

  Creating fixed part of basis set: Ionic, confined, hydrogenic.
 
  H                    hydrogenic:
 
  List of hydrogenic basis orbitals: 
    n    l      effective z      eigenvalue [eV]  inner max. [A]     outer max. [A]     outer radius [A]   
    2    0         2.100000       -14.9965           0.193243           1.317208           5.373006
    2    1         3.500000       -41.6672           0.602369           0.602369           4.056063
    1    0         0.850000        -9.8292           0.624871           0.624871           5.373006
    2    1         3.700000       -46.5653           0.573622           0.573622           3.910002
    2    0         1.200000        -4.5995           0.334980           2.228188           5.505995
    3    2         7.000000       -74.0753           0.680699           0.680699           3.769201
 
 
  C                    hydrogenic:
 
  List of hydrogenic basis orbitals: 
    n    l      effective z      eigenvalue [eV]  inner max. [A]     outer max. [A]     outer radius [A]   
    2    1         1.700000        -9.8152           1.245706           1.245706           5.401630
    3    2         6.000000       -54.4226           0.792453           0.792453           4.178599
    2    0         4.900000       -81.6681           0.082559           0.562749           3.353238
    4    3         9.800000       -81.6681           0.863254           0.863254           4.028125
    3    1         5.200000       -40.8774           0.305389           1.215618           4.898362
    3    0         4.300000       -27.9508           0.091041           1.610311           5.401630
    5    4        14.400000      -112.8510           0.917666           0.917666           3.883070
    3    2         6.200000       -58.1113           0.763917           0.763917           4.077671
 

  Adding cutoff potential to free-atom effective potential.
  Creating atomic-like basis functions for current effective potential.

  Species H                   :

  List of atomic basis orbitals and eigenvalues:
    n    l      energy [Ha]    energy [eV]    outer radius [A]
    1    0        -0.238386        -6.4868       5.373006


  Species C                   :

  List of atomic basis orbitals and eigenvalues:
    n    l      energy [Ha]    energy [eV]    outer radius [A]
    1    0       -10.049212      -273.4530       1.934409
    2    0        -0.504761       -13.7352       5.271162
    2    1        -0.193631        -5.2690       5.401630

  Assembling full basis from fixed parts.
  | Species H :   atomic orbital   1 s accepted.
  | Species H :    hydro orbital   2 s accepted.
  | Species H :    hydro orbital   1 s accepted.
  | Species H :    hydro orbital   2 s accepted.
  | Species H :    hydro orbital   2 p accepted.
  | Species H :    hydro orbital   2 p accepted.
  | Species H :    hydro orbital   3 d accepted.
  | Species C :   atomic orbital   1 s accepted.
  | Species C :    hydro orbital   2 s accepted.
  | Species C :   atomic orbital   2 s accepted.
  | Species C :    hydro orbital   3 s accepted.
  | Species C :    hydro orbital   3 p accepted.
  | Species C :   atomic orbital   2 p accepted.
  | Species C :    hydro orbital   2 p accepted.
  | Species C :    hydro orbital   3 d accepted.
  | Species C :    hydro orbital   3 d accepted.
  | Species C :    hydro orbital   4 f accepted.
  | Species C :    hydro orbital   5 g accepted.
 
  Basis size parameters after reduction:
  | Total number of radial functions:       18
  | Total number of basis functions :     4056
 
  Per-task memory consumption for arrays in subroutine allocate_ext:
  |           4.506456MB.
  Testing on-site integration grid accuracy.
  |  Species  Function  <phi|h_atom|phi> (log., in eV)  <phi|h_atom|phi> (rad., in eV)
           1        1                 -6.4870767962                 -6.4871688290
           1        2                 13.5032046589                 13.5028982997
           1        3                 32.8195184817                 32.8119941656
           1        4                 33.8513856511                 33.7670005767 ***
           1        5                 28.8544614965                 28.8544615203
           1        6                 59.6326952547                 59.6327656460
           1        7                 60.2719308513                 60.2719305949
           2        8               -273.4529726040               -273.4529710464
           2        9                -10.7721037319                -10.7721022101
           2       10                 17.6044132601                 17.6044162063
           2       11                 53.7706460658                 53.7706913770
           2       12                 15.0973290362                 15.0973256030
           2       13                  3.8545134692                  3.8545724687
           2       14                 12.1156992592                 12.1182024431
           2       15                 29.4352039302                 29.4352041816
           2       16                 54.8741144708                 54.8740268729
           2       17                 59.3556032049                 59.3556031382
           2       18                 93.4551837154                 93.4551838009
 * Note: Onsite integrals marked "***" above are less accurate than
 * onsite_accuracy_threshold =    0.03000 eV. Usually, this is harmless.
 * When in doubt, tighten the "radial" and/or "radial_multiplier" flags to check.

  Preparing densities etc. for the partition functions (integrals / Hartree potential).

  Preparations completed.
  max(cpu_time)          :      0.186 s.
  Wall clock time (cpu1) :      0.184 s.
------------------------------------------------------------

------------------------------------------------------------
          Begin self-consistency loop: Initialization.

          Date     :  20210620, Time     :  174711.409
------------------------------------------------------------

  Initializing index lists of integration centers etc. from given atomic structure:
  | Number of centers in hartree potential         :       136
  | Number of centers in hartree multipole         :       136
  | Number of centers in electron density summation:       136
  | Number of centers in basis integrals           :       136
  | Number of centers in integrals                 :       136
  | Number of centers in hamiltonian               :       136
  * Using 56 tasks for Scalapack Eigenvalue solver.
  Detailed listing of tasks and assigned k-points:
  (for non-periodic systems, the "k-point" denotes an internal label only)
   Task     0 k-point     1 on d021
   Task     1 k-point     1 on d021
   Task     2 k-point     1 on d021
   Task     3 k-point     1 on d021
   Task     4 k-point     1 on d021
   Task     5 k-point     1 on d021
   Task     6 k-point     1 on d021
   Task     7 k-point     1 on d021
   Task     8 k-point     1 on d021
   Task     9 k-point     1 on d021
   Task    10 k-point     1 on d021
   Task    11 k-point     1 on d021
   Task    12 k-point     1 on d021
   Task    13 k-point     1 on d021
   Task    14 k-point     1 on d021
   Task    15 k-point     1 on d021
   Task    16 k-point     1 on d021
   Task    17 k-point     1 on d021
   Task    18 k-point     1 on d021
   Task    19 k-point     1 on d021
   Task    20 k-point     1 on d021
   Task    21 k-point     1 on d021
   Task    22 k-point     1 on d021
   Task    23 k-point     1 on d021
   Task    24 k-point     1 on d021
   Task    25 k-point     1 on d021
   Task    26 k-point     1 on d021
   Task    27 k-point     1 on d021
   Task    28 k-point     1 on d021
   Task    29 k-point     1 on d021
   Task    30 k-point     1 on d021
   Task    31 k-point     1 on d021
   Task    32 k-point     1 on d021
   Task    33 k-point     1 on d021
   Task    34 k-point     1 on d021
   Task    35 k-point     1 on d021
   Task    36 k-point     1 on d021
   Task    37 k-point     1 on d021
   Task    38 k-point     1 on d021
   Task    39 k-point     1 on d021
   Task    40 k-point     1 on d021
   Task    41 k-point     1 on d021
   Task    42 k-point     1 on d021
   Task    43 k-point     1 on d021
   Task    44 k-point     1 on d021
   Task    45 k-point     1 on d021
   Task    46 k-point     1 on d021
   Task    47 k-point     1 on d021
   Task    48 k-point     1 on d021
   Task    49 k-point     1 on d021
   Task    50 k-point     1 on d021
   Task    51 k-point     1 on d021
   Task    52 k-point     1 on d021
   Task    53 k-point     1 on d021
   Task    54 k-point     1 on d021
   Task    55 k-point     1 on d021
  Tasks:    56 split into      8 X      7 BLACS grid
  Calculating block size based on n_basis =         4056 max_nprow =            8 max_npcol =            7
  ScaLAPACK block size set to:           16
  Allocating        2.425 MB for ovlp
  Allocating        2.425 MB for ham
  Allocating        2.425 MB for eigenvec
  Required Scalapack workspace - INTEGER:            1 REAL:             1
  Partitioning the integration grid into batches with parallel hashing+maxmin method.
  | Number of batches:    21772
  | Maximal batch size:     200
  | Minimal batch size:       4
  | Average batch size:     104.260
  | Standard deviation of batch sizes:      30.479

  Integration load balanced across     56 MPI tasks.
  Work distribution over tasks is as follows:
  Task      0 has      40666 integration points.
  Task      1 has      40537 integration points.
  Task      2 has      40482 integration points.
  Task      3 has      40557 integration points.
  Task      4 has      40547 integration points.
  Task      5 has      40530 integration points.
  Task      6 has      40491 integration points.
  Task      7 has      40683 integration points.
  Task      8 has      40585 integration points.
  Task      9 has      40377 integration points.
  Task     10 has      40587 integration points.
  Task     11 has      40576 integration points.
  Task     12 has      40562 integration points.
  Task     13 has      40433 integration points.
  Task     14 has      40656 integration points.
  Task     15 has      40565 integration points.
  Task     16 has      40424 integration points.
  Task     17 has      40580 integration points.
  Task     18 has      40480 integration points.
  Task     19 has      40593 integration points.
  Task     20 has      40440 integration points.
  Task     21 has      40647 integration points.
  Task     22 has      40608 integration points.
  Task     23 has      40393 integration points.
  Task     24 has      40584 integration points.
  Task     25 has      40475 integration points.
  Task     26 has      40499 integration points.
  Task     27 has      40439 integration points.
  Task     28 has      40558 integration points.
  Task     29 has      40559 integration points.
  Task     30 has      40518 integration points.
  Task     31 has      40631 integration points.
  Task     32 has      40500 integration points.
  Task     33 has      40545 integration points.
  Task     34 has      40471 integration points.
  Task     35 has      40621 integration points.
  Task     36 has      40616 integration points.
  Task     37 has      40398 integration points.
  Task     38 has      40661 integration points.
  Task     39 has      40464 integration points.
  Task     40 has      40499 integration points.
  Task     41 has      40469 integration points.
  Task     42 has      40629 integration points.
  Task     43 has      40528 integration points.
  Task     44 has      40474 integration points.
  Task     45 has      40628 integration points.
  Task     46 has      40456 integration points.
  Task     47 has      40578 integration points.
  Task     48 has      40436 integration points.
  Task     49 has      40607 integration points.
  Task     50 has      40571 integration points.
  Task     51 has      40469 integration points.
  Task     52 has      40584 integration points.
  Task     53 has      40461 integration points.
  Task     54 has      40516 integration points.
  Task     55 has      40509 integration points.
  Initializing partition tables, free-atom densities, potentials, etc. across the integration grid (initialize_grid_storage).
  | initialize_grid_storage: Actual outermost partition radius vs. multipole_radius_free
  | (-- VB: in principle, multipole_radius_free should be larger, hence this output)
  | Species        1: Confinement radius =              6.000000000000000 AA, multipole_radius_free =              6.071692442739658 AA.
  | Species        1: outer_partition_radius set to              6.071692442739658 AA .
  | Species        2: Confinement radius =              6.000000000000000 AA, multipole_radius_free =              6.029870734432609 AA.
  | Species        2: outer_partition_radius set to              6.029870734432609 AA .
  | The sparse table of interatomic distances needs    194.9480 kbyte instead of   147.9680 kbyte of memory.
  | Using the partition_type stratmann_smoother will reduce your memory usage.
  | Net number of integration points:  2269952
  | of which are non-zero points    :  1750418
  Renormalizing the initial density to the exact electron count on the 3D integration grid.
  | Initial density: Formal number of electrons (from input files) :     556.0000000000
  | Integrated number of electrons on 3D grid     :     556.0006609868
  | Charge integration error                      :       0.0006609868
  | Normalization factor for density and gradient :       0.9999988112
  Obtaining max. number of non-zero basis functions in each batch (get_n_compute_maxes).
  | Maximal number of non-zero basis functions:     1156
  Selecting the method for density update.
  Loop over occupied states selected for charge density update.
  Hamiltonian matrix size:
  | Size of matrix non-packed:               8227596
  | Size of matrix packed:         4488824
  Allocating       19.728 MB for KS_eigenvector
  use_local_index: Max. local matrix size =      2334427
  Task:     0 matrix size:     290637
  Task:     1 matrix size:     634726
  Task:     2 matrix size:     936986
  Task:     3 matrix size:    2027677
  Task:     4 matrix size:    2334427
  Task:     5 matrix size:    1655828
  Task:     6 matrix size:    1949194
  Task:     7 matrix size:     498702
  Task:     8 matrix size:     714986
  Task:     9 matrix size:     955830
  Task:    10 matrix size:     927322
  Task:    11 matrix size:     689634
  Task:    12 matrix size:    1570880
  Task:    13 matrix size:    1204276
  Task:    14 matrix size:     460115
  Task:    15 matrix size:    1120363
  Task:    16 matrix size:     658420
  Task:    17 matrix size:    1139648
  Task:    18 matrix size:    1643523
  Task:    19 matrix size:     558818
  Task:    20 matrix size:     811777
  Task:    21 matrix size:     818696
  Task:    22 matrix size:     768951
  Task:    23 matrix size:     483483
  Task:    24 matrix size:    2013510
  Task:    25 matrix size:    1464656
  Task:    26 matrix size:    2159783
  Task:    27 matrix size:    2103588
  Task:    28 matrix size:    2008382
  Task:    29 matrix size:    1573547
  Task:    30 matrix size:    2006925
  Task:    31 matrix size:     616666
  Task:    32 matrix size:     684303
  Task:    33 matrix size:     889789
  Task:    34 matrix size:    1032559
  Task:    35 matrix size:     645118
  Task:    36 matrix size:    1375229
  Task:    37 matrix size:     777090
  Task:    38 matrix size:     567866
  Task:    39 matrix size:     480697
  Task:    40 matrix size:    1190415
  Task:    41 matrix size:     881704
  Task:    42 matrix size:    1265900
  Task:    43 matrix size:     893381
  Task:    44 matrix size:     569399
  Task:    45 matrix size:    1024269
  Task:    46 matrix size:     635574
  Task:    47 matrix size:     589828
  Task:    48 matrix size:     467331
  Task:    49 matrix size:    1772138
  Task:    50 matrix size:    1638690
  Task:    51 matrix size:    1193706
  Task:    52 matrix size:    1387673
  Task:    53 matrix size:    1746356
  Task:    54 matrix size:     680249
  Task:    55 matrix size:     791838
  Integrating Hamiltonian matrix: batch-based integration.
  Time summed over all CPUs for integration: real work      627.241 s, elapsed     1124.363 s
  Time get_set_sparse_local_matrix_scalapack:     0.055631 s
  Start compute_balanced_batch_distribution
  Done load balancing, time needed:      0.025 s
  Integrating overlap matrix with loadbalancing
  Time summed over all CPUs for integration: real work      191.229 s, elapsed      218.219 s
  Time get_set_full_local_matrix_scalapack:     0.070818 s

  Updating Kohn-Sham eigenvalues and eigenvectors using ELSI and the ELPA eigensolver.
  Overlap matrix is not singular
  | Lowest and highest eigenvalues :  0.13E+02,  0.50E-04
  Finished singularity check of overlap matrix
  | Time :     0.672 s
  Finished Cholesky decomposition
  | Time :     0.211 s
  Finished transformation to standard eigenproblem
  | Time :     0.230 s
  Starting ELPA eigensolver
  Finished solving standard eigenproblem
  | Time :     0.784 s
  Finished back-transformation of eigenvectors
  | Time :     0.042 s

  Obtaining occupation numbers and chemical potential using ELSI.
  | Chemical potential (Fermi level):    -8.28239577 eV
  Writing Kohn-Sham eigenvalues.

  State    Occupation    Eigenvalue [Ha]    Eigenvalue [eV]
      1       2.00000         -10.212081         -277.88486
      2       2.00000         -10.202194         -277.61582
      3       2.00000         -10.200057         -277.55768
      4       2.00000         -10.192253         -277.34531
      5       2.00000         -10.191004         -277.31133
      6       2.00000         -10.190243         -277.29061
      7       2.00000         -10.186965         -277.20142
      8       2.00000         -10.184149         -277.12479
      9       2.00000         -10.182803         -277.08817
     10       2.00000         -10.181623         -277.05606
     11       2.00000         -10.181100         -277.04183
     12       2.00000         -10.180857         -277.03522
     13       2.00000         -10.179955         -277.01068
     14       2.00000         -10.179759         -277.00533
     15       2.00000         -10.178790         -276.97897
     16       2.00000         -10.178331         -276.96648
     17       2.00000         -10.178097         -276.96011
     18       2.00000         -10.177580         -276.94604
     19       2.00000         -10.177536         -276.94484
     20       2.00000         -10.176408         -276.91416
     21       2.00000         -10.176178         -276.90790
     22       2.00000         -10.175879         -276.89974
     23       2.00000         -10.175449         -276.88805
     24       2.00000         -10.174938         -276.87415
     25       2.00000         -10.174936         -276.87410
     26       2.00000         -10.174912         -276.87344
     27       2.00000         -10.174479         -276.86165
     28       2.00000         -10.174012         -276.84895
     29       2.00000         -10.173735         -276.84143
     30       2.00000         -10.173285         -276.82917
     31       2.00000         -10.173246         -276.82810
     32       2.00000         -10.172680         -276.81271
     33       2.00000         -10.172667         -276.81234
     34       2.00000         -10.172194         -276.79948
     35       2.00000         -10.172026         -276.79492
     36       2.00000         -10.171779         -276.78819
     37       2.00000         -10.171439         -276.77895
     38       2.00000         -10.171376         -276.77724
     39       2.00000         -10.170446         -276.75191
     40       2.00000         -10.170411         -276.75096
     41       2.00000         -10.170203         -276.74530
     42       2.00000         -10.170190         -276.74494
     43       2.00000         -10.169348         -276.72203
     44       2.00000         -10.169202         -276.71807
     45       2.00000         -10.168927         -276.71058
     46       2.00000         -10.168688         -276.70409
     47       2.00000         -10.168346         -276.69477
     48       2.00000         -10.168282         -276.69303
     49       2.00000         -10.168053         -276.68681
     50       2.00000         -10.167759         -276.67879
     51       2.00000         -10.167051         -276.65953
     52       2.00000         -10.166938         -276.65647
     53       2.00000         -10.166628         -276.64803
     54       2.00000         -10.166179         -276.63581
     55       2.00000         -10.166119         -276.63417
     56       2.00000         -10.165149         -276.60779
     57       2.00000         -10.164813         -276.59864
     58       2.00000         -10.164509         -276.59037
     59       2.00000         -10.163621         -276.56619
     60       2.00000         -10.163615         -276.56603
     61       2.00000         -10.163287         -276.55710
     62       2.00000         -10.162822         -276.54445
     63       2.00000         -10.162819         -276.54438
     64       2.00000         -10.162763         -276.54285
     65       2.00000         -10.162715         -276.54155
     66       2.00000         -10.161939         -276.52044
     67       2.00000         -10.161893         -276.51917
     68       2.00000         -10.161723         -276.51457
     69       2.00000         -10.160418         -276.47903
     70       2.00000         -10.160250         -276.47447
     71       2.00000         -10.159374         -276.45064
     72       2.00000         -10.159365         -276.45038
     73       2.00000         -10.159024         -276.44112
     74       2.00000         -10.158649         -276.43090
     75       2.00000         -10.158245         -276.41991
     76       2.00000         -10.158189         -276.41840
     77       2.00000         -10.157533         -276.40053
     78       2.00000         -10.157156         -276.39027
     79       2.00000         -10.156540         -276.37353
     80       2.00000         -10.156458         -276.37128
     81       2.00000         -10.155648         -276.34926
     82       2.00000         -10.153639         -276.29458
     83       2.00000         -10.147095         -276.11650
     84       2.00000         -10.133316         -275.74155
     85       2.00000          -1.064026          -28.95362
     86       2.00000          -1.025557          -27.90684
     87       2.00000          -1.022839          -27.83288
     88       2.00000          -1.014911          -27.61713
     89       2.00000          -1.010159          -27.48784
     90       2.00000          -1.006733          -27.39460
     91       2.00000          -1.004582          -27.33607
     92       2.00000          -1.001601          -27.25496
     93       2.00000          -0.998515          -27.17098
     94       2.00000          -0.996989          -27.12944
     95       2.00000          -0.993105          -27.02375
     96       2.00000          -0.986865          -26.85397
     97       2.00000          -0.980566          -26.68255
     98       2.00000          -0.970718          -26.41459
     99       2.00000          -0.953663          -25.95049
    100       2.00000          -0.946959          -25.76805
    101       2.00000          -0.940993          -25.60572
    102       2.00000          -0.933640          -25.40565
    103       2.00000          -0.931135          -25.33748
    104       2.00000          -0.930155          -25.31080
    105       2.00000          -0.909211          -24.74090
    106       2.00000          -0.903830          -24.59447
    107       2.00000          -0.900826          -24.51272
    108       2.00000          -0.897778          -24.42977
    109       2.00000          -0.896548          -24.39632
    110       2.00000          -0.893402          -24.31071
    111       2.00000          -0.890228          -24.22434
    112       2.00000          -0.887975          -24.16303
    113       2.00000          -0.887083          -24.13877
    114       2.00000          -0.886433          -24.12108
    115       2.00000          -0.884592          -24.07096
    116       2.00000          -0.883103          -24.03044
    117       2.00000          -0.881438          -23.98516
    118       2.00000          -0.879418          -23.93018
    119       2.00000          -0.878221          -23.89762
    120       2.00000          -0.872538          -23.74296
    121       2.00000          -0.871817          -23.72335
    122       2.00000          -0.861874          -23.45278
    123       2.00000          -0.854780          -23.25974
    124       2.00000          -0.852624          -23.20108
    125       2.00000          -0.839377          -22.84062
    126       2.00000          -0.814274          -22.15752
    127       2.00000          -0.806038          -21.93341
    128       2.00000          -0.791477          -21.53719
    129       2.00000          -0.784020          -21.33426
    130       2.00000          -0.778294          -21.17846
    131       2.00000          -0.776565          -21.13140
    132       2.00000          -0.773715          -21.05386
    133       2.00000          -0.770695          -20.97168
    134       2.00000          -0.767557          -20.88629
    135       2.00000          -0.765960          -20.84283
    136       2.00000          -0.761788          -20.72930
    137       2.00000          -0.759203          -20.65896
    138       2.00000          -0.755845          -20.56758
    139       2.00000          -0.751971          -20.46217
    140       2.00000          -0.749979          -20.40797
    141       2.00000          -0.748893          -20.37841
    142       2.00000          -0.747268          -20.33420
    143       2.00000          -0.746494          -20.31314
    144       2.00000          -0.745519          -20.28660
    145       2.00000          -0.745352          -20.28206
    146       2.00000          -0.742382          -20.20123
    147       2.00000          -0.734600          -19.98947
    148       2.00000          -0.729535          -19.85166
    149       2.00000          -0.722948          -19.67241
    150       2.00000          -0.719868          -19.58860
    151       2.00000          -0.709455          -19.30525
    152       2.00000          -0.706389          -19.22182
    153       2.00000          -0.695112          -18.91496
    154       2.00000          -0.682717          -18.57768
    155       2.00000          -0.681766          -18.55180
    156       2.00000          -0.676933          -18.42028
    157       2.00000          -0.675251          -18.37451
    158       2.00000          -0.670092          -18.23414
    159       2.00000          -0.667367          -18.15999
    160       2.00000          -0.665485          -18.10878
    161       2.00000          -0.662758          -18.03457
    162       2.00000          -0.661544          -18.00152
    163       2.00000          -0.659162          -17.93671
    164       2.00000          -0.657414          -17.88914
    165       2.00000          -0.647566          -17.62117
    166       2.00000          -0.646984          -17.60533
    167       2.00000          -0.642860          -17.49310
    168       2.00000          -0.641414          -17.45375
    169       2.00000          -0.640474          -17.42819
    170       2.00000          -0.636125          -17.30985
    171       2.00000          -0.634551          -17.26701
    172       2.00000          -0.632250          -17.20440
    173       2.00000          -0.631487          -17.18363
    174       2.00000          -0.629872          -17.13968
    175       2.00000          -0.628891          -17.11299
    176       2.00000          -0.627114          -17.06463
    177       2.00000          -0.619107          -16.84676
    178       2.00000          -0.617898          -16.81386
    179       2.00000          -0.613216          -16.68646
    180       2.00000          -0.612049          -16.65470
    181       2.00000          -0.609371          -16.58184
    182       2.00000          -0.603757          -16.42906
    183       2.00000          -0.597051          -16.24657
    184       2.00000          -0.593723          -16.15601
    185       2.00000          -0.590703          -16.07385
    186       2.00000          -0.585900          -15.94316
    187       2.00000          -0.584579          -15.90721
    188       2.00000          -0.583801          -15.88604
    189       2.00000          -0.582418          -15.84839
    190       2.00000          -0.579982          -15.78210
    191       2.00000          -0.579380          -15.76573
    192       2.00000          -0.578348          -15.73764
    193       2.00000          -0.577373          -15.71112
    194       2.00000          -0.576787          -15.69517
    195       2.00000          -0.575186          -15.65160
    196       2.00000          -0.573718          -15.61165
    197       2.00000          -0.571744          -15.55795
    198       2.00000          -0.569144          -15.48719
    199       2.00000          -0.567533          -15.44335
    200       2.00000          -0.566483          -15.41478
    201       2.00000          -0.565976          -15.40098
    202       2.00000          -0.565737          -15.39448
    203       2.00000          -0.563940          -15.34558
    204       2.00000          -0.562444          -15.30487
    205       2.00000          -0.561871          -15.28928
    206       2.00000          -0.560895          -15.26274
    207       2.00000          -0.557101          -15.15950
    208       2.00000          -0.556178          -15.13436
    209       2.00000          -0.554600          -15.09143
    210       2.00000          -0.550764          -14.98705
    211       2.00000          -0.545925          -14.85538
    212       2.00000          -0.544399          -14.81385
    213       2.00000          -0.541129          -14.72486
    214       2.00000          -0.538089          -14.64216
    215       2.00000          -0.536479          -14.59834
    216       2.00000          -0.529149          -14.39889
    217       2.00000          -0.525394          -14.29670
    218       2.00000          -0.524159          -14.26310
    219       2.00000          -0.522565          -14.21973
    220       2.00000          -0.518297          -14.10359
    221       2.00000          -0.515261          -14.02097
    222       2.00000          -0.514868          -14.01026
    223       2.00000          -0.513471          -13.97224
    224       2.00000          -0.512687          -13.95092
    225       2.00000          -0.511654          -13.92281
    226       2.00000          -0.509118          -13.85380
    227       2.00000          -0.508687          -13.84207
    228       2.00000          -0.507104          -13.79901
    229       2.00000          -0.506695          -13.78787
    230       2.00000          -0.505194          -13.74703
    231       2.00000          -0.504722          -13.73420
    232       2.00000          -0.503835          -13.71005
    233       2.00000          -0.502811          -13.68219
    234       2.00000          -0.501344          -13.64227
    235       2.00000          -0.500671          -13.62395
    236       2.00000          -0.499271          -13.58585
    237       2.00000          -0.498914          -13.57614
    238       2.00000          -0.498399          -13.56214
    239       2.00000          -0.497219          -13.53001
    240       2.00000          -0.495869          -13.49328
    241       2.00000          -0.495776          -13.49075
    242       2.00000          -0.492807          -13.40995
    243       2.00000          -0.491788          -13.38224
    244       2.00000          -0.491207          -13.36643
    245       2.00000          -0.487594          -13.26810
    246       2.00000          -0.481638          -13.10604
    247       2.00000          -0.479441          -13.04625
    248       2.00000          -0.477121          -12.98312
    249       2.00000          -0.475259          -12.93246
    250       2.00000          -0.461445          -12.55657
    251       2.00000          -0.453494          -12.34019
    252       2.00000          -0.449453          -12.23023
    253       2.00000          -0.437142          -11.89523
    254       2.00000          -0.436556          -11.87929
    255       2.00000          -0.428096          -11.64909
    256       2.00000          -0.426178          -11.59690
    257       2.00000          -0.420428          -11.44042
    258       2.00000          -0.417840          -11.37000
    259       2.00000          -0.414534          -11.28004
    260       2.00000          -0.412459          -11.22359
    261       2.00000          -0.410128          -11.16014
    262       2.00000          -0.408614          -11.11895
    263       2.00000          -0.407225          -11.08116
    264       2.00000          -0.403350          -10.97572
    265       2.00000          -0.402497          -10.95251
    266       2.00000          -0.401291          -10.91968
    267       2.00000          -0.399348          -10.86680
    268       2.00000          -0.398171          -10.83477
    269       2.00000          -0.395955          -10.77448
    270       2.00000          -0.393822          -10.71645
    271       2.00000          -0.393054          -10.69554
    272       2.00000          -0.391212          -10.64543
    273       2.00000          -0.385066          -10.47818
    274       2.00000          -0.376779          -10.25269
    275       2.00000          -0.374055          -10.17855
    276       2.00000          -0.357392           -9.72512
    277       2.00000          -0.351208           -9.55686
    278       2.00000          -0.318582           -8.66905
    279       0.00000          -0.291345           -7.92791
    280       0.00000          -0.254893           -6.93600
    281       0.00000          -0.252999           -6.88445
    282       0.00000          -0.233934           -6.36566
    283       0.00000          -0.229896           -6.25578
    284       0.00000          -0.228343           -6.21354
    285       0.00000          -0.225081           -6.12477
    286       0.00000          -0.222505           -6.05467
    287       0.00000          -0.219609           -5.97587
    288       0.00000          -0.218530           -5.94650
    289       0.00000          -0.217432           -5.91661
    290       0.00000          -0.213685           -5.81466
    291       0.00000          -0.213599           -5.81234
    292       0.00000          -0.211861           -5.76503
    293       0.00000          -0.211277           -5.74914
    294       0.00000          -0.210271           -5.72178
    295       0.00000          -0.206363           -5.61544
    296       0.00000          -0.205307           -5.58669
    297       0.00000          -0.204890           -5.57535
    298       0.00000          -0.201979           -5.49613
    299       0.00000          -0.201230           -5.47574
    300       0.00000          -0.199475           -5.42799
    301       0.00000          -0.189712           -5.16233
    302       0.00000          -0.185373           -5.04427
    303       0.00000          -0.169128           -4.60221
    304       0.00000          -0.167154           -4.54850
    305       0.00000          -0.160791           -4.37535
    306       0.00000          -0.145084           -3.94795
    307       0.00000          -0.124505           -3.38795
    308       0.00000          -0.099547           -2.70882
    309       0.00000          -0.093928           -2.55590
    310       0.00000          -0.089879           -2.44573
    311       0.00000          -0.085814           -2.33511
    312       0.00000          -0.081138           -2.20788
    313       0.00000          -0.079773           -2.17075
    314       0.00000          -0.078037           -2.12350
    315       0.00000          -0.077165           -2.09977
[...]
    438       0.00000           0.201231            5.47577
    439       0.00000           0.203148            5.52793
    440       0.00000           0.205137            5.58207
    441       0.00000           0.206150            5.60963
    442       0.00000           0.207336            5.64190
    443       0.00000           0.208760            5.68064
    444       0.00000           0.209398            5.69802
    445       0.00000           0.209961            5.71332
    446       0.00000           0.210521            5.72855
    447       0.00000           0.212526            5.78312
    448       0.00000           0.213676            5.81441
    449       0.00000           0.214285            5.83099
    450       0.00000           0.215531            5.86491
    451       0.00000           0.216277            5.88519
    452       0.00000           0.216818            5.89992
    453       0.00000           0.218372            5.94220
    454       0.00000           0.219488            5.97258
    455       0.00000           0.219844            5.98225
    456       0.00000           0.220678            6.00495
    457       0.00000           0.221581            6.02953
    458       0.00000           0.221949            6.03955
    459       0.00000           0.222354            6.05057
    460       0.00000           0.224987            6.12220
    461       0.00000           0.225346            6.13198
    462       0.00000           0.226128            6.15325
    463       0.00000           0.226584            6.16566
    464       0.00000           0.227201            6.18245
    465       0.00000           0.228047            6.20547
    466       0.00000           0.228459            6.21669
    467       0.00000           0.228686            6.22286
    468       0.00000           0.230586            6.27456
    469       0.00000           0.231110            6.28882
    470       0.00000           0.231662            6.30385
    471       0.00000           0.232105            6.31590
    472       0.00000           0.233322            6.34902
    473       0.00000           0.234114            6.37056
    474       0.00000           0.234710            6.38679
    475       0.00000           0.236279            6.42948
    476       0.00000           0.236926            6.44708
    477       0.00000           0.238163            6.48075
    478       0.00000           0.239306            6.51186
    479       0.00000           0.239558            6.51871
    480       0.00000           0.240235            6.53712
    481       0.00000           0.241033            6.55885
    482       0.00000           0.241408            6.56904
    483       0.00000           0.243332            6.62139
    484       0.00000           0.245414            6.67807
    485       0.00000           0.246730            6.71386
    486       0.00000           0.247655            6.73904
    487       0.00000           0.248905            6.77304
    488       0.00000           0.249790            6.79713
    489       0.00000           0.250134            6.80650
    490       0.00000           0.251454            6.84241
    491       0.00000           0.252451            6.86954
    492       0.00000           0.252958            6.88334
    493       0.00000           0.253818            6.90673
    494       0.00000           0.255599            6.95519
    495       0.00000           0.256155            6.97034
    496       0.00000           0.258157            7.02481
    497       0.00000           0.258674            7.03888
    498       0.00000           0.259801            7.06954
    499       0.00000           0.260971            7.10138
    500       0.00000           0.262259            7.13644
    501       0.00000           0.265135            7.21469
    502       0.00000           0.265665            7.22911
    503       0.00000           0.265943            7.23669
    504       0.00000           0.267296            7.27350
    505       0.00000           0.269080            7.32205
    506       0.00000           0.269505            7.33361
    507       0.00000           0.271239            7.38078
    508       0.00000           0.272078            7.40362
    509       0.00000           0.272936            7.42697
    510       0.00000           0.274455            7.46829
    511       0.00000           0.274765            7.47672
    512       0.00000           0.275232            7.48945
    513       0.00000           0.276350            7.51986
    514       0.00000           0.279140            7.59578
    515       0.00000           0.281230            7.65267
    516       0.00000           0.281770            7.66736
    517       0.00000           0.282469            7.68636
    518       0.00000           0.283836            7.72357
    519       0.00000           0.284415            7.73932
    520       0.00000           0.285437            7.76714
    521       0.00000           0.287045            7.81090
    522       0.00000           0.287328            7.81858
    523       0.00000           0.290839            7.91413
    524       0.00000           0.291550            7.93348
    525       0.00000           0.292358            7.95546
    526       0.00000           0.293418            7.98432
    527       0.00000           0.294781            8.02139
    528       0.00000           0.295846            8.05039
    529       0.00000           0.297004            8.08188
    530       0.00000           0.297442            8.09381
    531       0.00000           0.299108            8.13914
    532       0.00000           0.299424            8.14775
    533       0.00000           0.301722            8.21027
    534       0.00000           0.302247            8.22456
    535       0.00000           0.303437            8.25694
    536       0.00000           0.304346            8.28169
    537       0.00000           0.305328            8.30841
    538       0.00000           0.307133            8.35751
    539       0.00000           0.308991            8.40806
    540       0.00000           0.310013            8.43588
    541       0.00000           0.312154            8.49415
    542       0.00000           0.312396            8.50073
    543       0.00000           0.312927            8.51518
    544       0.00000           0.315557            8.58675
    545       0.00000           0.317460            8.63853
    546       0.00000           0.317898            8.65045
    547       0.00000           0.319804            8.70230
    548       0.00000           0.320828            8.73017
    549       0.00000           0.321905            8.75948
    550       0.00000           0.324285            8.82425
    551       0.00000           0.324811            8.83856
    552       0.00000           0.325087            8.84607
    553       0.00000           0.326317            8.87954
    554       0.00000           0.327779            8.91932
    555       0.00000           0.328487            8.93860
    556       0.00000           0.329895            8.97690
    557       0.00000           0.333577            9.07709
    558       0.00000           0.333787            9.08280
    559       0.00000           0.335120            9.11909
    560       0.00000           0.337023            9.17087
    561       0.00000           0.339205            9.23024
    562       0.00000           0.339690            9.24344
    563       0.00000           0.341133            9.28271
    564       0.00000           0.344039            9.36179
    565       0.00000           0.344412            9.37192
    566       0.00000           0.346511            9.42904
    567       0.00000           0.347023            9.44299
    568       0.00000           0.349583            9.51264
    569       0.00000           0.351254            9.55812
    570       0.00000           0.352816            9.60061
    571       0.00000           0.353548            9.62053
    572       0.00000           0.355786            9.68143
    573       0.00000           0.357577            9.73018
    574       0.00000           0.359050            9.77024
    575       0.00000           0.359470            9.78167
    576       0.00000           0.359740            9.78902
    577       0.00000           0.363470            9.89052
    578       0.00000           0.365235            9.93854
    579       0.00000           0.365934            9.95758
    580       0.00000           0.369088           10.04338
    581       0.00000           0.371060           10.09706
    582       0.00000           0.372376           10.13285
    583       0.00000           0.373180           10.15475
    584       0.00000           0.375201           10.20973
    585       0.00000           0.375834           10.22697
    586       0.00000           0.377474           10.27160
    587       0.00000           0.378502           10.29956
    588       0.00000           0.380800           10.36210
    589       0.00000           0.382011           10.39504
    590       0.00000           0.382802           10.41658
    591       0.00000           0.384301           10.45735
    592       0.00000           0.386143           10.50749
    593       0.00000           0.387314           10.53935
    594       0.00000           0.389826           10.60771
    595       0.00000           0.391584           10.65554
    596       0.00000           0.392587           10.68283
    597       0.00000           0.394656           10.73914
    598       0.00000           0.395487           10.76174
    599       0.00000           0.399040           10.85844
    600       0.00000           0.399362           10.86720
    601       0.00000           0.399662           10.87535
    602       0.00000           0.401515           10.92577
    603       0.00000           0.403168           10.97075
    604       0.00000           0.404873           11.01715
    605       0.00000           0.406593           11.06397
    606       0.00000           0.407496           11.08853
    607       0.00000           0.410257           11.16367
    608       0.00000           0.411584           11.19977

  Highest occupied state (VBM) at     -4.16722088 eV
  | Occupation number:      2.00000000

  Lowest unoccupied state (CBM) at    -3.48581769 eV
  | Occupation number:      0.00000000

  Overall HOMO-LUMO gap:      0.68140318 eV.

  Total energy components:
  | Sum of eigenvalues            :       -1836.76291169 Ha      -49980.86182547 eV
  | XC energy correction          :        -472.45471502 Ha      -12856.14690934 eV
  | XC potential correction       :         606.94560160 Ha       16515.83013573 eV
  | Free-atom electrostatic energy:       -1406.91384113 Ha      -38284.07348924 eV
  | Hartree energy correction     :        -121.48717739 Ha       -3305.83429578 eV
  | Entropy correction            :           0.00000000 Ha           0.00000000 eV
  | ---------------------------
  | Total energy                  :       -3230.67304363 Ha      -87911.08638409 eV
  | Total energy, T -> 0          :       -3230.67304363 Ha      -87911.08638409 eV  <-- do not rely on this value for anything but (periodic) metals
  | Electronic free energy        :       -3230.67304363 Ha      -87911.08638409 eV

  Derived energy quantities:
  | Kinetic energy                :        3223.78946809 Ha       87723.77476336 eV
  | Electrostatic energy          :       -5982.00779670 Ha     -162778.71423812 eV
  | Energy correction for multipole
  | error in Hartree potential    :          -0.38477189 Ha         -10.47017590 eV
  | Sum of eigenvalues per atom                           :        -367.50633695 eV
  | Total energy (T->0) per atom                          :        -646.40504694 eV  <-- do not rely on this value for anything but (periodic) metals
  | Electronic free energy per atom                       :        -646.40504694 eV
  End evaluation of scaled ZORA corrections.
  | Time for scaled ZORA corrections           :       22.071 s          22.084 s
------------------------------------------------------------

  Energy and forces in a compact form:
  | Total energy uncorrected      :         -0.879110863840940E+05 eV
  | Total energy corrected        :         -0.879110863840940E+05 eV  <-- do not rely on this value for anything but (periodic) metals
  | Electronic free energy        :         -0.879110863840940E+05 eV

  ------------------------------------ 
  Start decomposition of the XC Energy 
  ------------------------------------ 
  X and C from original XC functional choice 
  Hartree-Fock Energy :          0.000000000 Ha              0.000000000 eV
  X Energy            :       -453.786322721 Ha         -12348.154108389 eV
  C Energy            :        -18.668392303 Ha           -507.992800946 eV
  Total XC Energy     :       -472.454715023 Ha         -12856.146909335 eV
  ------------------------------------ 
  LDA X and C from self-consistent density 
  X Energy LDA        :       -411.062418658 Ha         -11185.577527609 eV
  C Energy LDA        :        -35.903401015 Ha           -976.981249870 eV
  ------------------------------------ 
  End decomposition of the XC Energy 
  ------------------------------------ 

------------------------------------------------------------

------------------------------------------------------------------------------
  Final output of selected total energy values:

  The following output summarizes some interesting total energy values
  at the end of a run (AFTER all relaxation, molecular dynamics, etc.).

  | Total energy of the DFT / Hartree-Fock s.c.f. calculation      :         -87911.086384094 eV
  | Final zero-broadening corrected energy (caution - metals only) :         -87911.086384094 eV
  | For reference only, the value of 1 Hartree used in FHI-aims is :             27.211384500 eV

  Before relying on these values, please be sure to understand exactly which
  total energy value is referred to by a given number. Different objects may
  all carry the same name 'total energy'. Definitions:

  Total energy of the DFT / Hartree-Fock s.c.f. calculation:
  | Note that this energy does not include ANY quantities calculated after the
  | s.c.f. cycle, in particular not ANY RPA, MP2, etc. many-body perturbation terms.
  | Scalar relativistic effects have been included in the 'scaled ZORA' approximation.

  Final zero-broadening corrected energy:
  | For metallic systems only, a broadening of the occupation numbers at the Fermi
  | level can be extrapolated back to zero broadening by an electron-gas inspired
  | formula. For all systems that are not real metals, this value can be
  | meaningless and should be avoided.

------------------------------------------------------------------------------
  Methods described in the following list of references were used in this FHI-aims run.
  If you publish the results, please make sure to cite these reference if they apply.
  FHI-aims is an academic code, and for our developers (often, Ph.D. students
  and postdocs), scientific credit in the community is essential.
  Thank you for helping us!

  For any use of FHI-aims, please cite:

    Volker Blum, Ralf Gehrke, Felix Hanke, Paula Havu, Ville Havu,
    Xinguo Ren, Karsten Reuter, and Matthias Scheffler
    'Ab initio molecular simulations with numeric atom-centered orbitals'
    Computer Physics Communications 180, 2175-2196 (2009)
    http://dx.doi.org/10.1016/j.cpc.2009.06.022


  The scalable eigensolver library ELPA was used in your run.
  ELPA is essential especially for large systems on hundreds or thousands of CPUs.
  For ELPA, please cite:

    Andreas Marek, Volker Blum, Rainer Johanni, Ville Havu, Bruno Lang,
    Thomas Auckenthaler, Alexander Heinecke, Hans-Joachim Bungartz, and Hermann Lederer,
    'The ELPA Library - Scalable Parallel Eigenvalue Solutions
    for Electronic Structure Theory and Computational Science'
    The Journal of Physics: Condensed Matter 26, 213201 (2014).
    http://dx.doi.org/10.1088/0953-8984/26/21/213201


  The ELSI infrastructure was used in your run to solve the Kohn-Sham electronic structure.
  Please check out http://elsi-interchange.org to learn more.
  If scalability is important for your project, please acknowledge ELSI by citing:

    V. W-z. Yu, F. Corsetti, A. Garcia, W. P. Huhn, M. Jacquelin, W. Jia,
    B. Lange, L. Lin, J. Lu, W. Mi, A. Seifitokaldani, A. Vazquez-Mayagoitia,
    C. Yang, H. Yang, and V. Blum
    'ELSI: A unified software interface for Kohn-Sham electronic structure solvers'
    Computer Physics Communications 222, 267-285 (2018).
    http://dx.doi.org/10.1016/j.cpc.2017.09.007


  For the real-space grid partitioning and parallelization used in this calculation, please cite:

    Ville Havu, Volker Blum, Paula Havu, and Matthias Scheffler,
    'Efficient O(N) integration for all-electron electronic structure calculation'
    'using numerically tabulated basis functions'
    Journal of Computational Physics 228, 8367-8379 (2009).
    http://dx.doi.org/10.1016/j.jcp.2009.08.008

  Of course, there are many other important community references, e.g., those cited in the
  above references. Our list is limited to references that describe implementations in the
  FHI-aims code. The reason is purely practical (length of this list) - please credit others as well.

------------------------------------------------------------
          Leaving FHI-aims.
          Date     :  20210620, Time     :  175713.598

          Computational steps:
          | Number of self-consistency cycles          :           21
          | Number of SCF (re)initializations          :            1

          Detailed time accounting                     :  max(cpu_time)    wall_clock(cpu1)
          | Total time                                 :      602.316 s         602.566 s
          | Preparation time                           :        0.186 s           0.184 s
          | Boundary condition initalization           :        0.001 s           0.004 s
          | Grid partitioning                          :        2.905 s           2.909 s
          | Preloading free-atom quantities on grid    :        0.013 s           0.016 s
          | Free-atom superposition energy             :        0.292 s           0.292 s
          | Total time for integrations                :      291.936 s         291.947 s
          | Total time for solution of K.-S. equations :       28.964 s          28.989 s
          | Total time for density update              :      182.919 s         182.840 s
          | Total time for mixing                      :        0.542 s           0.544 s
          | Total time for Hartree multipole update    :        0.527 s           0.538 s
          | Total time for Hartree multipole sum       :       67.366 s          67.368 s
          | Total time for total energy evaluation     :        0.013 s           0.046 s
          | Total time for scaled ZORA corrections     :       22.071 s          22.084 s

          Partial memory accounting:
          | Residual value for overall tracked memory usage across tasks :     0.000000 MB (should be 0.000000 MB)
          | Peak values for overall tracked memory usage (after allocating zora_vector2):
          |   Minimum:       60.219 MB (on task  1)
          |   Maximum:       85.421 MB (on task  5)
          |   Average:       69.705 MB
          | Largest tracked array allocation (+KS_eigenvector):
          |   Minimum:       19.728 MB (on task  1)
          |   Maximum:       21.912 MB (on task  5)
          |   Average:       19.857 MB
          Note:  These values currently only include a subset of arrays which are explicitly tracked.
          The "true" memory usage will be greater.

          Have a nice day.
------------------------------------------------------------
