  MPI-parallelism will be employed.
------------------------------------------------------------
          Invoking FHI-aims ...
          Version 180607
          Git rev. (modified): 6724847 Fix JSON memory corruption in scf_solver
          Compiled on 2018/06/27 at 16:00:31 on host coe.psc.edu.

          When using FHI-aims, please cite the following reference:

          Volker Blum, Ralf Gehrke, Felix Hanke, Paula Havu,
          Ville Havu, Xinguo Ren, Karsten Reuter, and Matthias Scheffler,
          'Ab Initio Molecular Simulations with Numeric Atom-Centered Orbitals',
          Computer Physics Communications 180, 2175-2196 (2009)

          For any questions about FHI-aims, please visit the aimsclub website
          with its forums and wiki. Contributions to both the forums and the
          wiki are warmly encouraged - they are for you, and everyone is welcome there.

------------------------------------------------------------



  Date     :  20210620, Time     :  173700.628
  Time zero on CPU 1             :   0.209155000000000E+00  s.
  Internal wall clock time zero  :           393442620.628  s.

  FHI-aims created a unique identifier for this run for later identification
  aims_uuid : 11C44868-699D-49DC-A035-D228402E8AAA

  Using       56 parallel tasks.
  Task        0 on host d021 reporting.
  Task        1 on host d021 reporting.
  Task        2 on host d021 reporting.
  Task        3 on host d021 reporting.
  Task        4 on host d021 reporting.
  Task        5 on host d021 reporting.
  Task        6 on host d021 reporting.
  Task        7 on host d021 reporting.
  Task        8 on host d021 reporting.
  Task        9 on host d021 reporting.
  Task       10 on host d021 reporting.
  Task       11 on host d021 reporting.
  Task       12 on host d021 reporting.
  Task       13 on host d021 reporting.
  Task       14 on host d021 reporting.
  Task       15 on host d021 reporting.
  Task       16 on host d021 reporting.
  Task       17 on host d021 reporting.
  Task       18 on host d021 reporting.
  Task       19 on host d021 reporting.
  Task       20 on host d021 reporting.
  Task       21 on host d021 reporting.
  Task       22 on host d021 reporting.
  Task       23 on host d021 reporting.
  Task       24 on host d021 reporting.
  Task       25 on host d021 reporting.
  Task       26 on host d021 reporting.
  Task       27 on host d021 reporting.
  Task       28 on host d021 reporting.
  Task       29 on host d021 reporting.
  Task       30 on host d021 reporting.
  Task       31 on host d021 reporting.
  Task       32 on host d021 reporting.
  Task       33 on host d021 reporting.
  Task       34 on host d021 reporting.
  Task       35 on host d021 reporting.
  Task       36 on host d021 reporting.
  Task       37 on host d021 reporting.
  Task       38 on host d021 reporting.
  Task       39 on host d021 reporting.
  Task       40 on host d021 reporting.
  Task       41 on host d021 reporting.
  Task       42 on host d021 reporting.
  Task       43 on host d021 reporting.
  Task       44 on host d021 reporting.
  Task       45 on host d021 reporting.
  Task       46 on host d021 reporting.
  Task       47 on host d021 reporting.
  Task       48 on host d021 reporting.
  Task       49 on host d021 reporting.
  Task       50 on host d021 reporting.
  Task       51 on host d021 reporting.
  Task       52 on host d021 reporting.
  Task       53 on host d021 reporting.
  Task       54 on host d021 reporting.
  Task       55 on host d021 reporting.

  Performing system and environment tests:
  *** Environment variable OMP_NUM_THREADS is not set
  *** For performance reasons you might want to set it to 1
  | Stacksize not measured: no C compiler
  | Checking for scalapack...
  | Testing pdtran()...
  | All pdtran() tests passed.

  Obtaining array dimensions for all initial allocations:
  
  -----------------------------------------------------------------------
  Parsing control.in (first pass over file, find array dimensions only).
  The contents of control.in will be repeated verbatim below
  unless switched off by setting 'verbatim_writeout .false.' .
  in the first line of control.in .
  -----------------------------------------------------------------------
  
  #===============================================================================
  # FHI-aims file: ./Runs/es/control.in
  # Created using the Atomic Simulation Environment (ASE)
  # Mon Jan 13 16:04:38 2020
  #===============================================================================
  xc                                 pbe
  relativistic                       zora scalar 1e-12
  occupation_type                    gaussian 0.0001
  load_balancing                     .true.
  KS_method                          scalapack_fast
  mixer                              pulay
  n_max_pulay                        5
  charge_mix_param                   0.4
  sc_accuracy_etot                   1e-6
  sc_accuracy_eev                    1e-4
  sc_accuracy_rho                    1e-6
  sc_iter_limit                      100
  prodbas_threshold                  1e-4
  basis_threshold                    1e-5
  override_illconditioning           .true.
  use_logsbt                         .true.
  spin                               none
  charge                             0
  #===============================================================================
  
  ################################################################################
  #
  #  FHI-aims code project
  # Volker Blum, Fritz Haber Institute Berlin, 2009
  #
  #  Suggested "tight" defaults for H atom (to be pasted into control.in file)
  #
  ################################################################################
    species        H
  #     global species definitions
      nucleus             1
      mass                1.00794
  #
      l_hartree           6
  #
      cut_pot             4.0  2.0  1.0
      basis_dep_cutoff    1e-4
  #
      radial_base         24 7.0
      radial_multiplier   2
      angular_grids       specified
        division   0.1930   50
        division   0.3175  110
        division   0.4293  194
        division   0.5066  302
        division   0.5626  434
  #      division   0.5922  590
  #      division   0.6227  974
  #      division   0.6868 1202
  #      outer_grid  770
        outer_grid  434
  ################################################################################
  #
  #  Definition of "minimal" basis
  #
  ################################################################################
  #     valence basis states
      valence      1  s   1.
  #     ion occupancy
      ion_occ      1  s   0.5
  ################################################################################
  #
  #  Suggested additional basis functions. For production calculations,
  #  uncomment them one after another (the most important basis functions are
  #  listed first).
  #
  #  Basis constructed for dimers: 0.5 A, 0.7 A, 1.0 A, 1.5 A, 2.5 A
  #
  ################################################################################
  #  "First tier" - improvements: -1014.90 meV to -62.69 meV
       hydro 2 s 2.1
       hydro 2 p 3.5
  #  "Second tier" - improvements: -12.89 meV to -1.83 meV
       hydro 1 s 0.85
       hydro 2 p 3.7
       hydro 2 s 1.2
       hydro 3 d 7
  #  "Third tier" - improvements: -0.25 meV to -0.12 meV
  #     hydro 4 f 11.2
  #     hydro 3 p 4.8
  #     hydro 4 d 9
  #     hydro 3 s 3.2
  ################################################################################
  #
  # For methods that use the localized form of the "resolution of identity" for
  # the two-electron Coulomb operator (RI_method LVL), particularly Hartree-Fock and
  # hybrid density functional calculations, the highest accuracy can be obtained by
  # uncommenting the line beginning with "for_aux"  below, thus adding an extra g radial
  # function to the construction of the product basis set for the expansion.
  # See Ref. New J. Phys. 17, 093020 (2015) for more information, particularly Figs. 1 and 6.
  #
  ################################################################################
  #
  # for_aux hydro 5 g 6.0
  ################################################################################
  #
  #  FHI-aims code project
  # Volker Blum, Fritz Haber Institute Berlin, 2009
  #
  #  Suggested "tight" defaults for C atom (to be pasted into control.in file)
  #
  ################################################################################
    species        C
  #     global species definitions
      nucleus             6
      mass                12.0107
  #
      l_hartree           6
  #
      cut_pot             4.0  2.0  1.0
      basis_dep_cutoff    1e-4
  #
      radial_base         34 7.0
      radial_multiplier   2
      angular_grids specified
        division   0.2187   50
        division   0.4416  110
        division   0.6335  194
        division   0.7727  302
        division   0.8772  434
  #      division   0.9334  590
  #      division   0.9924  770
  #      division   1.0230  974
  #      division   1.5020 1202
  #     outer_grid  974
        outer_grid  434
  ################################################################################
  #
  #  Definition of "minimal" basis
  #
  ################################################################################
  #     valence basis states
      valence      2  s   2.
      valence      2  p   2.
  #     ion occupancy
      ion_occ      2  s   1.
      ion_occ      2  p   1.
  ################################################################################
  #
  #  Suggested additional basis functions. For production calculations,
  #  uncomment them one after another (the most important basis functions are
  #  listed first).
  #
  #  Constructed for dimers: 1.0 A, 1.25 A, 1.5 A, 2.0 A, 3.0 A
  #
  ################################################################################
  #  "First tier" - improvements: -1214.57 meV to -155.61 meV
       hydro 2 p 1.7
       hydro 3 d 6
       hydro 2 s 4.9
  #  "Second tier" - improvements: -67.75 meV to -5.23 meV
       hydro 4 f 9.8
       hydro 3 p 5.2
       hydro 3 s 4.3
       hydro 5 g 14.4
       hydro 3 d 6.2
  #  "Third tier" - improvements: -2.43 meV to -0.60 meV
  #     hydro 2 p 5.6
  #     hydro 2 s 1.4
  #     hydro 3 d 4.9
  #     hydro 4 f 11.2
  #  "Fourth tier" - improvements: -0.39 meV to -0.18 meV
  #     hydro 2 p 2.1
  #     hydro 5 g 16.4
  #     hydro 4 d 13.2
  #     hydro 3 s 13.6
  #     hydro 4 f 17.6
  #  Further basis functions - improvements: -0.08 meV and below
  #     hydro 3 s 2
  #     hydro 3 p 6
  #     hydro 4 d 20
  ################################################################################
  #
  # For methods that use the localized form of the "resolution of identity" for
  # the two-electron Coulomb operator (RI_method LVL), particularly Hartree-Fock and
  # hybrid density functional calculations, the highest accuracy can be obtained by
  # uncommenting the line beginning with "for_aux"  below, thus adding an extra g radial
  # function to the construction of the product basis set for the expansion.
  # See Ref. New J. Phys. 17, 093020 (2015) for more information, particularly Figs. 1 and 6.
  #
  ################################################################################
  #
  # for_aux hydro 5 g 6.0
  
  -----------------------------------------------------------------------
  Completed first pass over input file control.in .
  -----------------------------------------------------------------------
  
  
  -----------------------------------------------------------------------
  Parsing geometry.in (first pass over file, find array dimensions only).
  The contents of geometry.in will be repeated verbatim below
  unless switched off by setting 'verbatim_writeout .false.' .
  in the first line of geometry.in .
  -----------------------------------------------------------------------
  
  #=======================================================
  # FHI-aims file: geometry.in
  # Created using the Atomic Simulation Environment (ASE)
  # Sun Jun 20 15:47:02 2021
  #=======================================================
  atom 12.7204999999999995 26.7374510000000001 39.3088989999999967 C
  atom 11.7934999999999999 26.8786869999999993 38.3574940000000026 C
  atom 13.0295000000000005 25.6595860000000009 39.9748829999999984 C
  atom 13.5444999999999993 28.0506829999999994 39.5150369999999995 C
  atom 10.9695000000000000 25.6330160000000014 38.1037859999999995 C
  atom 11.8450000000000006 28.2687840000000001 37.8976479999999967 C
  atom 12.2055000000000007 24.3463540000000016 39.7687450000000027 C
  atom 13.9565000000000001 25.5183509999999991 40.9262889999999970 C
  atom 12.7204999999999995 28.8943569999999994 38.6112019999999987 C
  atom 14.4715000000000007 27.9754480000000001 40.4664429999999982 C
  atom 10.0425000000000004 25.5668129999999998 37.1048100000000005 C
  atom 11.2784999999999993 24.4215890000000009 38.8173400000000015 C
  atom 10.9695000000000000 28.9453749999999985 37.0572400000000002 C
  atom 13.0295000000000005 23.5026800000000016 40.6725800000000035 C
  atom 13.9049999999999994 24.1282530000000008 41.3861350000000030 C
  atom 14.7805000000000000 26.7640209999999996 41.1799970000000002 C
  atom 12.8234999999999992 30.2976039999999998 38.4209209999999999 C
  atom 15.2439999999999998 29.1331179999999996 40.7201510000000013 C
  atom 9.2185000000000006 24.5207049999999995 36.8035319999999970 C
  atom 9.8767730000000000 26.4890030000000003 36.5468109999999982 H
  atom 10.5060000000000002 23.2639190000000013 38.5636319999999984 C
  atom 10.1909740000000006 28.3901789999999998 36.5387240000000020 H
  atom 11.0210000000000008 30.3151019999999995 36.8828159999999983 C
  atom 12.9265000000000008 22.0994330000000012 40.8628619999999998 C
  atom 14.7805000000000000 23.4516619999999989 42.2265429999999995 C
  atom 15.7074999999999996 26.8302240000000012 42.1789720000000017 C
  atom 12.0510000000000002 30.9411960000000015 37.5805130000000034 C
  atom 13.5870390000000008 30.8493129999999987 38.9686129999999977 H
  atom 15.0702909999999992 30.0366929999999996 40.1428060000000002 H
  atom 16.1709999999999994 29.1123620000000010 41.6874129999999994 C
  atom 8.4559390000000008 24.5143360000000001 36.0325759999999988 H
  atom 9.5790000000000006 23.2846750000000000 37.5963700000000003 C
  atom 10.6797090000000008 22.3603440000000013 39.1409760000000020 H
  atom 10.3301789999999993 30.8428700000000013 36.2298339999999968 H
  atom 12.1629609999999992 21.5477239999999988 40.3151689999999974 H
  atom 13.6989999999999998 21.4558420000000005 41.7032700000000034 C
  atom 14.7289999999999992 22.0819359999999989 42.4009670000000014 C
  atom 15.5590259999999994 24.0068589999999986 42.7450589999999977 H
  atom 15.8732270000000000 25.9080340000000007 42.7369720000000015 H
  atom 16.5315000000000012 27.8763329999999989 42.4802510000000026 C
  atom 12.1753210000000003 32.0216550000000026 37.4653929999999988 H
  atom 16.7606749999999991 30.0113960000000013 41.8849879999999999 H
  atom 8.9893249999999991 22.3856420000000007 37.3987949999999998 H
  atom 13.5746789999999997 20.3753819999999983 41.8183900000000008 H
  atom 15.4198210000000007 21.5541680000000007 43.0539479999999983 H
  atom 17.2940609999999992 27.8827010000000008 43.2512060000000034 H
  
  -----------------------------------------------------------------------
  Completed first pass over input file geometry.in .
  -----------------------------------------------------------------------
  

  Basic array size parameters:
  | Number of species                 :        2
  | Number of atoms                   :       46
  | Max. basis fn. angular momentum   :        4
  | Max. atomic/ionic basis occupied n:        2
  | Max. number of basis fn. types    :        2
  | Max. radial fns per species/type  :        8
  | Max. logarithmic grid size        :     1277
  | Max. radial integration grid size :       69
  | Max. angular integration grid size:      434
  | Max. angular grid division number :        8
  | Radial grid for Hartree potential :     1277
  | Number of spin channels           :        1

------------------------------------------------------------
          Reading file control.in.
------------------------------------------------------------
  XC: Using PBE gradient-corrected functionals.
  Scalar relativistic treatment of kinetic energy: ZORA.
  Threshold value for ZORA:   0.100000E-11
  Occupation type: Gaussian broadening, width =   0.100000E-03 eV.
  Since 'load_balancing .true.' is present in control.in, automatically turning on 'use_local_index .true.'.
  Using load balancing for integrations.
  Kohn-Sham electronic structure solved by the ELSI library.
  Using pulay charge density mixing.
  Pulay mixing - number of memorized iterations:    5
  Charge density mixing - mixing parameter:     0.4000
  Convergence accuracy of total energy:  0.1000E-05
  Convergence accuracy of sum of eigenvalues:  0.1000E-03
  Convergence accuracy of self-consistent charge density:  0.1000E-05
  Maximum number of s.-c. iterations  :   100
  * Ignoring prodbas_threshold
  Threshold for basis singularities:  0.1000E-04
  override_illconditioning: Explicitly overriding any built-in checks for an ill-conditioned overlap matrix.
  *** WARNING: If you use this flag, you should really know what you are doing.
  *** DO NOT keep this flag set by default in all your control.in files.
  Using 1D integrations for auxiliary 2-center integrals.
  Spin treatment: No spin polarisation.
  Charge =   0.000000E+00: Neutral system requested explicitly.
 
  Reading configuration options for species H                   .
  | Found nuclear charge :   1.0000
  | Found atomic mass :    1.00794000000000      amu
  | Found l_max for Hartree potential  :   6
  | Found cutoff potl. onset [A], width [A], scale factor :    4.00000    2.00000    1.00000
  | Threshold for basis-dependent cutoff potential is   0.100000E-03
  | Found data for basic radial integration grid :    24 points, outermost radius =    7.000 A
  | Found multiplier for basic radial grid :   2
  | Found angular grid specification: user-specified.
  | Specified grid contains     6 separate shells.
  | Check grid settings after all constraints further below.
  | Found free-atom valence shell :  1 s   1.000
  | No ionic wave fns used. Skipping ion_occ.
  | Found hydrogenic basis function :  2 s   2.100
  | Found hydrogenic basis function :  2 p   3.500
  | Found hydrogenic basis function :  1 s   0.850
  | Found hydrogenic basis function :  2 p   3.700
  | Found hydrogenic basis function :  2 s   1.200
  | Found hydrogenic basis function :  3 d   7.000
  Species H                   : Missing cutoff potential type.
  Defaulting to exp(1/x)/(1-x)^2 type cutoff potential.
  Species H : No 'logarithmic' tag. Using default grid for free atom:
  | Default logarithmic grid data [bohr] : 0.1000E-03 0.1000E+03 0.1012E+01
  Species H : On-site basis accuracy parameter (for Gram-Schmidt orthonormalisation) not specified.
  Using default value basis_acc =  0.1000000E-03.
  Species H                   : Using default innermost maximum threshold i_radial=  2 for radial functions.
  Species H                   : Default cutoff onset for free atom density etc. : 0.40000000E+01 AA.
  Species H                   : Basic radial grid will be enhanced according to radial_multiplier =   2, to contain    49 grid points.
 
  Reading configuration options for species C                   .
  | Found nuclear charge :   6.0000
  | Found atomic mass :    12.0107000000000      amu
  | Found l_max for Hartree potential  :   6
  | Found cutoff potl. onset [A], width [A], scale factor :    4.00000    2.00000    1.00000
  | Threshold for basis-dependent cutoff potential is   0.100000E-03
  | Found data for basic radial integration grid :    34 points, outermost radius =    7.000 A
  | Found multiplier for basic radial grid :   2
  | Found angular grid specification: user-specified.
  | Specified grid contains     6 separate shells.
  | Check grid settings after all constraints further below.
  | Found free-atom valence shell :  2 s   2.000
  | Found free-atom valence shell :  2 p   2.000
  | No ionic wave fns used. Skipping ion_occ.
  | No ionic wave fns used. Skipping ion_occ.
  | Found hydrogenic basis function :  2 p   1.700
  | Found hydrogenic basis function :  3 d   6.000
  | Found hydrogenic basis function :  2 s   4.900
  | Found hydrogenic basis function :  4 f   9.800
  | Found hydrogenic basis function :  3 p   5.200
  | Found hydrogenic basis function :  3 s   4.300
  | Found hydrogenic basis function :  5 g  14.400
  | Found hydrogenic basis function :  3 d   6.200
  Species C                   : Missing cutoff potential type.
  Defaulting to exp(1/x)/(1-x)^2 type cutoff potential.
  Species C : No 'logarithmic' tag. Using default grid for free atom:
  | Default logarithmic grid data [bohr] : 0.1000E-03 0.1000E+03 0.1012E+01
  Species C : On-site basis accuracy parameter (for Gram-Schmidt orthonormalisation) not specified.
  Using default value basis_acc =  0.1000000E-03.
  Species C                   : Using default innermost maximum threshold i_radial=  2 for radial functions.
  Species C                   : Default cutoff onset for free atom density etc. : 0.40000000E+01 AA.
  Species C                   : Basic radial grid will be enhanced according to radial_multiplier =   2, to contain    69 grid points.
 
  Finished reading input file 'control.in'. Consistency checks are next.
 
  MPI_IN_PLACE appears to work with this MPI implementation.
  | Keeping use_mpi_in_place .true. (see manual).
  Target number of points in a grid batch is not set. Defaulting to  100
  Method for grid partitioning is not set. Defaulting to parallel hash+maxmin partitioning.
  Batch size limit is not set. Defaulting to    200
  By default, will store active basis functions for each batch.
  If in need of memory, prune_basis_once .false. can be used to disable this option.
  communication_type for Hartree potential was not specified.
  Defaulting to calc_hartree .
  Pulay mixer: Number of initial linear mixing iterations not set.
  Defaulting to    0 iterations.
  Work space size for distributed Hartree potential not set.
  Defaulting to   0.200000E+03 MB.
  Algorithm-dependent basis array size parameters:
  | n_max_pulay                         :        5
  Presetting      1001 iterations before the initial mixing cycle
  is restarted anyway using the sc_init_iter criterion / keyword.
  Presetting a factor      1.000 between actual scf density residual
  and density convergence criterion sc_accuracy_rho below which sc_init_iter
  takes no effect.
  Calculation of forces was not defined in control.in. No forces will be calculated.
  Geometry relaxation not requested: no relaxation will be performed.
  No accuracy limit for integral partition fn. given. Defaulting to  0.1000E-14.
  No threshold value for u(r) in integrations given. Defaulting to  0.1000E-05.
  No accuracy for occupation numbers given. Defaulting to  0.1000E-12.
  No threshold value for occupation numbers given. Defaulting to  0.0000E+00.
  No accuracy for fermi level given. Defaulting to  0.1000E-19.
  Maximum # of iterations to find E_F not set. Defaulting to  200.
  Will not use alltoall communication since running on < 1024 CPUs.
  partition_type (choice of integration weights) for integrals was not specified.
  | Using a version of the partition function of Stratmann and coworkers ('stratmann_sparse').
  | At each grid point, the set of atoms used to build the partition table is smoothly restricted to
  | only those atoms whose free-atom density would be non-zero at that grid point.
  Partitioning for Hartree potential was not defined. Using partition_type for integrals.
  | Adjusted default value of keyword multip_moments_threshold to:       0.10000000E-11
  | This value may affect high angular momentum components of the Hartree potential in periodic systems.
  No q(lm)/r^(l+1) cutoff set for long-range Hartree potential.
  | Using default value of  0.100000E-09 .
  | Verify using the multipole_threshold keyword.
  Defaulting to new monopole extrapolation.
  Density update method: automatic selection selected.
 * Warning: use_local_index and/or load_balancing needs packed_matrix_format = index
 * Changing the default setting to packed_matrix_format = index
------------------------------------------------------------


------------------------------------------------------------
          Reading geometry description geometry.in.
------------------------------------------------------------
  Input structure read successfully.
  The structure contains       46 atoms,  and a total of        196.000 electrons.

  Input geometry:
  | No unit cell requested.
  | Atomic structure:
  |       Atom                x [A]            y [A]            z [A]
  |    1: Species C            12.72050000       26.73745100       39.30889900
  |    2: Species C            11.79350000       26.87868700       38.35749400
  |    3: Species C            13.02950000       25.65958600       39.97488300
  |    4: Species C            13.54450000       28.05068300       39.51503700
  |    5: Species C            10.96950000       25.63301600       38.10378600
  |    6: Species C            11.84500000       28.26878400       37.89764800
  |    7: Species C            12.20550000       24.34635400       39.76874500
  |    8: Species C            13.95650000       25.51835100       40.92628900
  |    9: Species C            12.72050000       28.89435700       38.61120200
  |   10: Species C            14.47150000       27.97544800       40.46644300
  |   11: Species C            10.04250000       25.56681300       37.10481000
  |   12: Species C            11.27850000       24.42158900       38.81734000
  |   13: Species C            10.96950000       28.94537500       37.05724000
  |   14: Species C            13.02950000       23.50268000       40.67258000
  |   15: Species C            13.90500000       24.12825300       41.38613500
  |   16: Species C            14.78050000       26.76402100       41.17999700
  |   17: Species C            12.82350000       30.29760400       38.42092100
  |   18: Species C            15.24400000       29.13311800       40.72015100
  |   19: Species C             9.21850000       24.52070500       36.80353200
  |   20: Species H             9.87677300       26.48900300       36.54681100
  |   21: Species C            10.50600000       23.26391900       38.56363200
  |   22: Species H            10.19097400       28.39017900       36.53872400
  |   23: Species C            11.02100000       30.31510200       36.88281600
  |   24: Species C            12.92650000       22.09943300       40.86286200
  |   25: Species C            14.78050000       23.45166200       42.22654300
  |   26: Species C            15.70750000       26.83022400       42.17897200
  |   27: Species C            12.05100000       30.94119600       37.58051300
  |   28: Species H            13.58703900       30.84931300       38.96861300
  |   29: Species H            15.07029100       30.03669300       40.14280600
  |   30: Species C            16.17100000       29.11236200       41.68741300
  |   31: Species H             8.45593900       24.51433600       36.03257600
  |   32: Species C             9.57900000       23.28467500       37.59637000
  |   33: Species H            10.67970900       22.36034400       39.14097600
  |   34: Species H            10.33017900       30.84287000       36.22983400
  |   35: Species H            12.16296100       21.54772400       40.31516900
  |   36: Species C            13.69900000       21.45584200       41.70327000
  |   37: Species C            14.72900000       22.08193600       42.40096700
  |   38: Species H            15.55902600       24.00685900       42.74505900
  |   39: Species H            15.87322700       25.90803400       42.73697200
  |   40: Species C            16.53150000       27.87633300       42.48025100
  |   41: Species H            12.17532100       32.02165500       37.46539300
  |   42: Species H            16.76067500       30.01139600       41.88498800
  |   43: Species H             8.98932500       22.38564200       37.39879500
  |   44: Species H            13.57467900       20.37538200       41.81839000
  |   45: Species H            15.41982100       21.55416800       43.05394800
  |   46: Species H            17.29406100       27.88270100       43.25120600
  |

  | The smallest distance between any two atoms is         1.08439450 AA.
  |
  | The first atom of this pair is atom number                     40 .
  | The second atom of this pair is atom number                    46 .

  Number of empty states per atom not set in control.in - providing a guess from actual geometry.
  | Total number of empty states used during s.c.f. cycle:      114
  If you use a very high smearing, use empty_states (per atom!) in control.in to increase this value.

  Structure-dependent array size parameters: 
  | Maximum number of distinct radial functions  :       18
  | Maximum number of basis functions            :     1410
  | Number of Kohn-Sham states (occupied + empty):      212
------------------------------------------------------------

------------------------------------------------------------
          Preparing all fixed parts of the calculation.
------------------------------------------------------------
  Determining machine precision:
    2.225073858507201E-308
  Setting up grids for atomic and cluster calculations.

  Creating wave function, potential, and density for free atoms.

  Species: H

  List of occupied orbitals and eigenvalues:
    n    l              occ      energy [Ha]    energy [eV]
    1    0           1.0000        -0.238386        -6.4868


  Species: C

  List of occupied orbitals and eigenvalues:
    n    l              occ      energy [Ha]    energy [eV]
    1    0           2.0000       -10.049212      -273.4530
    2    0           2.0000        -0.504761       -13.7352
    2    1           2.0000        -0.193631        -5.2690

  Creating fixed part of basis set: Ionic, confined, hydrogenic.
 
  H                    hydrogenic:
 
  List of hydrogenic basis orbitals: 
    n    l      effective z      eigenvalue [eV]  inner max. [A]     outer max. [A]     outer radius [A]   
    2    0         2.100000       -14.9965           0.193243           1.317208           5.373006
    2    1         3.500000       -41.6672           0.602369           0.602369           4.056063
    1    0         0.850000        -9.8292           0.624871           0.624871           5.373006
    2    1         3.700000       -46.5653           0.573622           0.573622           3.910002
    2    0         1.200000        -4.5995           0.334980           2.228188           5.505995
    3    2         7.000000       -74.0753           0.680699           0.680699           3.769201
 
 
  C                    hydrogenic:
 
  List of hydrogenic basis orbitals: 
    n    l      effective z      eigenvalue [eV]  inner max. [A]     outer max. [A]     outer radius [A]   
    2    1         1.700000        -9.8152           1.245706           1.245706           5.401630
    3    2         6.000000       -54.4226           0.792453           0.792453           4.178599
    2    0         4.900000       -81.6681           0.082559           0.562749           3.353238
    4    3         9.800000       -81.6681           0.863254           0.863254           4.028125
    3    1         5.200000       -40.8774           0.305389           1.215618           4.898362
    3    0         4.300000       -27.9508           0.091041           1.610311           5.401630
    5    4        14.400000      -112.8510           0.917666           0.917666           3.883070
    3    2         6.200000       -58.1113           0.763917           0.763917           4.077671
 

  Adding cutoff potential to free-atom effective potential.
  Creating atomic-like basis functions for current effective potential.

  Species H                   :

  List of atomic basis orbitals and eigenvalues:
    n    l      energy [Ha]    energy [eV]    outer radius [A]
    1    0        -0.238386        -6.4868       5.373006


  Species C                   :

  List of atomic basis orbitals and eigenvalues:
    n    l      energy [Ha]    energy [eV]    outer radius [A]
    1    0       -10.049212      -273.4530       1.934409
    2    0        -0.504761       -13.7352       5.271162
    2    1        -0.193631        -5.2690       5.401630

  Assembling full basis from fixed parts.
  | Species H :   atomic orbital   1 s accepted.
  | Species H :    hydro orbital   2 s accepted.
  | Species H :    hydro orbital   1 s accepted.
  | Species H :    hydro orbital   2 s accepted.
  | Species H :    hydro orbital   2 p accepted.
  | Species H :    hydro orbital   2 p accepted.
  | Species H :    hydro orbital   3 d accepted.
  | Species C :   atomic orbital   1 s accepted.
  | Species C :    hydro orbital   2 s accepted.
  | Species C :   atomic orbital   2 s accepted.
  | Species C :    hydro orbital   3 s accepted.
  | Species C :    hydro orbital   3 p accepted.
  | Species C :   atomic orbital   2 p accepted.
  | Species C :    hydro orbital   2 p accepted.
  | Species C :    hydro orbital   3 d accepted.
  | Species C :    hydro orbital   3 d accepted.
  | Species C :    hydro orbital   4 f accepted.
  | Species C :    hydro orbital   5 g accepted.
 
  Basis size parameters after reduction:
  | Total number of radial functions:       18
  | Total number of basis functions :     1410
 
  Per-task memory consumption for arrays in subroutine allocate_ext:
  |           4.446336MB.
  Testing on-site integration grid accuracy.
  |  Species  Function  <phi|h_atom|phi> (log., in eV)  <phi|h_atom|phi> (rad., in eV)
           1        1                 -6.4870767962                 -6.4871688290
           1        2                 13.5032046589                 13.5028982997
           1        3                 32.8195184817                 32.8119941656
           1        4                 33.8513856511                 33.7670005767 ***
           1        5                 28.8544614965                 28.8544615203
           1        6                 59.6326952547                 59.6327656460
           1        7                 60.2719308513                 60.2719305949
           2        8               -273.4529726040               -273.4529710464
           2        9                -10.7721037319                -10.7721022101
           2       10                 17.6044132601                 17.6044162063
           2       11                 53.7706460658                 53.7706913770
           2       12                 15.0973290362                 15.0973256030
           2       13                  3.8545134692                  3.8545724687
           2       14                 12.1156992592                 12.1182024431
           2       15                 29.4352039302                 29.4352041816
           2       16                 54.8741144708                 54.8740268729
           2       17                 59.3556032049                 59.3556031382
           2       18                 93.4551837154                 93.4551838009
 * Note: Onsite integrals marked "***" above are less accurate than
 * onsite_accuracy_threshold =    0.03000 eV. Usually, this is harmless.
 * When in doubt, tighten the "radial" and/or "radial_multiplier" flags to check.

  Preparing densities etc. for the partition functions (integrals / Hartree potential).

  Preparations completed.
  max(cpu_time)          :      0.189 s.
  Wall clock time (cpu1) :      0.197 s.
------------------------------------------------------------

------------------------------------------------------------
          Begin self-consistency loop: Initialization.

          Date     :  20210620, Time     :  173701.000
------------------------------------------------------------

  Initializing index lists of integration centers etc. from given atomic structure:
  | Number of centers in hartree potential         :        46
  | Number of centers in hartree multipole         :        46
  | Number of centers in electron density summation:        46
  | Number of centers in basis integrals           :        46
  | Number of centers in integrals                 :        46
  | Number of centers in hamiltonian               :        46
  * Using 56 tasks for Scalapack Eigenvalue solver.
  Detailed listing of tasks and assigned k-points:
  (for non-periodic systems, the "k-point" denotes an internal label only)
   Task     0 k-point     1 on d021
   Task     1 k-point     1 on d021
   Task     2 k-point     1 on d021
   Task     3 k-point     1 on d021
   Task     4 k-point     1 on d021
   Task     5 k-point     1 on d021
   Task     6 k-point     1 on d021
   Task     7 k-point     1 on d021
   Task     8 k-point     1 on d021
   Task     9 k-point     1 on d021
   Task    10 k-point     1 on d021
   Task    11 k-point     1 on d021
   Task    12 k-point     1 on d021
   Task    13 k-point     1 on d021
   Task    14 k-point     1 on d021
   Task    15 k-point     1 on d021
   Task    16 k-point     1 on d021
   Task    17 k-point     1 on d021
   Task    18 k-point     1 on d021
   Task    19 k-point     1 on d021
   Task    20 k-point     1 on d021
   Task    21 k-point     1 on d021
   Task    22 k-point     1 on d021
   Task    23 k-point     1 on d021
   Task    24 k-point     1 on d021
   Task    25 k-point     1 on d021
   Task    26 k-point     1 on d021
   Task    27 k-point     1 on d021
   Task    28 k-point     1 on d021
   Task    29 k-point     1 on d021
   Task    30 k-point     1 on d021
   Task    31 k-point     1 on d021
   Task    32 k-point     1 on d021
   Task    33 k-point     1 on d021
   Task    34 k-point     1 on d021
   Task    35 k-point     1 on d021
   Task    36 k-point     1 on d021
   Task    37 k-point     1 on d021
   Task    38 k-point     1 on d021
   Task    39 k-point     1 on d021
   Task    40 k-point     1 on d021
   Task    41 k-point     1 on d021
   Task    42 k-point     1 on d021
   Task    43 k-point     1 on d021
   Task    44 k-point     1 on d021
   Task    45 k-point     1 on d021
   Task    46 k-point     1 on d021
   Task    47 k-point     1 on d021
   Task    48 k-point     1 on d021
   Task    49 k-point     1 on d021
   Task    50 k-point     1 on d021
   Task    51 k-point     1 on d021
   Task    52 k-point     1 on d021
   Task    53 k-point     1 on d021
   Task    54 k-point     1 on d021
   Task    55 k-point     1 on d021
  Tasks:    56 split into      8 X      7 BLACS grid
  Calculating block size based on n_basis =         1410 max_nprow =            8 max_npcol =            7
  ScaLAPACK block size set to:           16
  Allocating        0.296 MB for ovlp
  Allocating        0.296 MB for ham
  Allocating        0.296 MB for eigenvec
  Required Scalapack workspace - INTEGER:            1 REAL:             1
  Partitioning the integration grid into batches with parallel hashing+maxmin method.
  | Number of batches:     6977
  | Maximal batch size:     200
  | Minimal batch size:      15
  | Average batch size:     110.870
  | Standard deviation of batch sizes:      34.640

  Integration load balanced across     56 MPI tasks.
  Work distribution over tasks is as follows:
  Task      0 has      13977 integration points.
  Task      1 has      13803 integration points.
  Task      2 has      13735 integration points.
  Task      3 has      13869 integration points.
  Task      4 has      13860 integration points.
  Task      5 has      13799 integration points.
  Task      6 has      13770 integration points.
  Task      7 has      13843 integration points.
  Task      8 has      13846 integration points.
  Task      9 has      13755 integration points.
  Task     10 has      13926 integration points.
  Task     11 has      13769 integration points.
  Task     12 has      13765 integration points.
  Task     13 has      13742 integration points.
  Task     14 has      13948 integration points.
  Task     15 has      13826 integration points.
  Task     16 has      13674 integration points.
  Task     17 has      13888 integration points.
  Task     18 has      13779 integration points.
  Task     19 has      13799 integration points.
  Task     20 has      13797 integration points.
  Task     21 has      13942 integration points.
  Task     22 has      13836 integration points.
  Task     23 has      13759 integration points.
  Task     24 has      13820 integration points.
  Task     25 has      13776 integration points.
  Task     26 has      13786 integration points.
  Task     27 has      13681 integration points.
  Task     28 has      13898 integration points.
  Task     29 has      13822 integration points.
  Task     30 has      13785 integration points.
  Task     31 has      13901 integration points.
  Task     32 has      13798 integration points.
  Task     33 has      13939 integration points.
  Task     34 has      13596 integration points.
  Task     35 has      13907 integration points.
  Task     36 has      13871 integration points.
  Task     37 has      13809 integration points.
  Task     38 has      13867 integration points.
  Task     39 has      13735 integration points.
  Task     40 has      13788 integration points.
  Task     41 has      13752 integration points.
  Task     42 has      13893 integration points.
  Task     43 has      13838 integration points.
  Task     44 has      13697 integration points.
  Task     45 has      13931 integration points.
  Task     46 has      13776 integration points.
  Task     47 has      13819 integration points.
  Task     48 has      13710 integration points.
  Task     49 has      13925 integration points.
  Task     50 has      13800 integration points.
  Task     51 has      13753 integration points.
  Task     52 has      13881 integration points.
  Task     53 has      13714 integration points.
  Task     54 has      13841 integration points.
  Task     55 has      13724 integration points.
  Initializing partition tables, free-atom densities, potentials, etc. across the integration grid (initialize_grid_storage).
  | initialize_grid_storage: Actual outermost partition radius vs. multipole_radius_free
  | (-- VB: in principle, multipole_radius_free should be larger, hence this output)
  | Species        1: Confinement radius =              6.000000000000000 AA, multipole_radius_free =              6.071692442739658 AA.
  | Species        1: outer_partition_radius set to              6.071692442739658 AA .
  | Species        2: Confinement radius =              6.000000000000000 AA, multipole_radius_free =              6.029870734432609 AA.
  | Species        2: outer_partition_radius set to              6.029870734432609 AA .
  | The sparse table of interatomic distances needs     25.0280 kbyte instead of    16.9280 kbyte of memory.
  | Using the partition_type stratmann_smoother will reduce your memory usage.
  | Net number of integration points:   773540
  | of which are non-zero points    :   622543
  Renormalizing the initial density to the exact electron count on the 3D integration grid.
  | Initial density: Formal number of electrons (from input files) :     196.0000000000
  | Integrated number of electrons on 3D grid     :     195.9999888553
  | Charge integration error                      :      -0.0000111447
  | Normalization factor for density and gradient :       1.0000000569
  Obtaining max. number of non-zero basis functions in each batch (get_n_compute_maxes).
  | Maximal number of non-zero basis functions:      977
  Selecting the method for density update.
  Loop over occupied states selected for charge density update.
  Hamiltonian matrix size:
  | Size of matrix non-packed:                994755
  | Size of matrix packed:          916014
  Allocating        2.391 MB for KS_eigenvector
  use_local_index: Max. local matrix size =       776157
  Task:     0 matrix size:     104194
  Task:     1 matrix size:     137528
  Task:     2 matrix size:     223793
  Task:     3 matrix size:     289243
  Task:     4 matrix size:     373133
  Task:     5 matrix size:     367435
  Task:     6 matrix size:     503366
  Task:     7 matrix size:     314776
  Task:     8 matrix size:     317856
  Task:     9 matrix size:     279640
  Task:    10 matrix size:     455590
  Task:    11 matrix size:     588548
  Task:    12 matrix size:     644426
  Task:    13 matrix size:     682155
  Task:    14 matrix size:     392667
  Task:    15 matrix size:     776157
  Task:    16 matrix size:     759653
  Task:    17 matrix size:     213235
  Task:    18 matrix size:     403261
  Task:    19 matrix size:     636922
  Task:    20 matrix size:     560269
  Task:    21 matrix size:     156520
  Task:    22 matrix size:     147686
  Task:    23 matrix size:      97461
  Task:    24 matrix size:     502662
  Task:    25 matrix size:     374696
  Task:    26 matrix size:     347478
  Task:    27 matrix size:     251123
  Task:    28 matrix size:     298290
  Task:    29 matrix size:     375173
  Task:    30 matrix size:     499289
  Task:    31 matrix size:     186877
  Task:    32 matrix size:      98346
  Task:    33 matrix size:     240440
  Task:    34 matrix size:     106953
  Task:    35 matrix size:     595151
  Task:    36 matrix size:     380974
  Task:    37 matrix size:     391458
  Task:    38 matrix size:     721811
  Task:    39 matrix size:     757827
  Task:    40 matrix size:     447575
  Task:    41 matrix size:     505428
  Task:    42 matrix size:     717707
  Task:    43 matrix size:     661042
  Task:    44 matrix size:     536280
  Task:    45 matrix size:     315053
  Task:    46 matrix size:     358182
  Task:    47 matrix size:     379435
  Task:    48 matrix size:     260282
  Task:    49 matrix size:     494340
  Task:    50 matrix size:     475128
  Task:    51 matrix size:     310764
  Task:    52 matrix size:     268350
  Task:    53 matrix size:     171390
  Task:    54 matrix size:     192491
  Task:    55 matrix size:     104196
  Integrating Hamiltonian matrix: batch-based integration.
  Time summed over all CPUs for integration: real work      138.164 s, elapsed      261.970 s
  Time get_set_sparse_local_matrix_scalapack:     0.014392 s
  Start compute_balanced_batch_distribution
  Done load balancing, time needed:      0.008 s
  Integrating overlap matrix with loadbalancing
  Time summed over all CPUs for integration: real work       38.873 s, elapsed       47.161 s
  Time get_set_full_local_matrix_scalapack:     0.016213 s

  Updating Kohn-Sham eigenvalues and eigenvectors using ELSI and the ELPA eigensolver.
  Overlap matrix is not singular
  | Lowest and highest eigenvalues :  0.11E+02,  0.59E-04
  Finished singularity check of overlap matrix
  | Time :     0.082 s
  Finished Cholesky decomposition
  | Time :     0.018 s
  Finished transformation to standard eigenproblem
  | Time :     0.014 s
  Starting ELPA eigensolver
  Finished solving standard eigenproblem
  | Time :     0.083 s
  Finished back-transformation of eigenvectors
  | Time :     0.003 s

  Obtaining occupation numbers and chemical potential using ELSI.
  | Chemical potential (Fermi level):    -9.00041244 eV
  Writing Kohn-Sham eigenvalues.

  State    Occupation    Eigenvalue [Ha]    Eigenvalue [eV]
      1       2.00000         -10.188570         -277.24510
      2       2.00000         -10.188570         -277.24509
      3       2.00000         -10.187093         -277.20490
      4       2.00000         -10.186193         -277.18042
      5       2.00000         -10.184848         -277.14381
      6       2.00000         -10.184848         -277.14381
      7       2.00000         -10.182486         -277.07955
      8       2.00000         -10.182486         -277.07955
      9       2.00000         -10.181552         -277.05414
     10       2.00000         -10.181552         -277.05414
     11       2.00000         -10.178871         -276.98117
     12       2.00000         -10.178871         -276.98117
     13       2.00000         -10.178072         -276.95943
     14       2.00000         -10.178072         -276.95943
     15       2.00000         -10.176411         -276.91423
     16       2.00000         -10.176411         -276.91423
     17       2.00000         -10.173248         -276.82816
     18       2.00000         -10.173248         -276.82816
     19       2.00000         -10.172148         -276.79824
     20       2.00000         -10.172148         -276.79823
     21       2.00000         -10.164108         -276.57944
     22       2.00000         -10.164107         -276.57944
     23       2.00000         -10.163727         -276.56908
     24       2.00000         -10.163727         -276.56907
     25       2.00000         -10.160857         -276.49099
     26       2.00000         -10.160857         -276.49098
     27       2.00000         -10.160095         -276.47026
     28       2.00000         -10.160095         -276.47026
     29       2.00000         -10.158094         -276.41581
     30       2.00000         -10.158094         -276.41581
     31       2.00000          -1.058302          -28.79785
     32       2.00000          -1.043344          -28.39084
     33       2.00000          -1.011332          -27.51974
     34       2.00000          -1.000608          -27.22794
     35       2.00000          -0.982301          -26.72977
     36       2.00000          -0.973244          -26.48331
     37       2.00000          -0.929293          -25.28734
     38       2.00000          -0.923067          -25.11792
     39       2.00000          -0.918402          -24.99098
     40       2.00000          -0.904083          -24.60136
     41       2.00000          -0.893337          -24.30893
     42       2.00000          -0.892726          -24.29231
     43       2.00000          -0.880028          -23.94679
     44       2.00000          -0.866340          -23.57430
     45       2.00000          -0.834364          -22.70421
     46       2.00000          -0.809523          -22.02825
     47       2.00000          -0.797875          -21.71128
     48       2.00000          -0.788304          -21.45085
     49       2.00000          -0.763632          -20.77950
     50       2.00000          -0.760071          -20.68258
     51       2.00000          -0.740104          -20.13924
     52       2.00000          -0.735665          -20.01846
     53       2.00000          -0.729899          -19.86156
     54       2.00000          -0.709160          -19.29722
     55       2.00000          -0.706103          -19.21403
     56       2.00000          -0.684994          -18.63963
     57       2.00000          -0.675490          -18.38101
     58       2.00000          -0.654853          -17.81947
     59       2.00000          -0.648445          -17.64509
     60       2.00000          -0.640800          -17.43704
     61       2.00000          -0.637332          -17.34268
     62       2.00000          -0.629159          -17.12028
     63       2.00000          -0.623625          -16.96969
     64       2.00000          -0.618555          -16.83174
     65       2.00000          -0.607680          -16.53581
     66       2.00000          -0.597078          -16.24731
     67       2.00000          -0.583542          -15.87899
     68       2.00000          -0.576438          -15.68568
     69       2.00000          -0.574567          -15.63477
     70       2.00000          -0.572960          -15.59104
     71       2.00000          -0.572050          -15.56626
     72       2.00000          -0.567034          -15.42979
     73       2.00000          -0.564503          -15.36091
     74       2.00000          -0.560159          -15.24269
     75       2.00000          -0.549758          -14.95968
     76       2.00000          -0.541597          -14.73760
     77       2.00000          -0.540014          -14.69452
     78       2.00000          -0.531138          -14.45301
     79       2.00000          -0.526692          -14.33203
     80       2.00000          -0.523261          -14.23866
     81       2.00000          -0.514948          -14.01246
     82       2.00000          -0.513090          -13.96188
     83       2.00000          -0.504590          -13.73058
     84       2.00000          -0.497255          -13.53100
     85       2.00000          -0.486337          -13.23391
     86       2.00000          -0.482450          -13.12812
     87       2.00000          -0.476659          -12.97055
     88       2.00000          -0.466558          -12.69570
     89       2.00000          -0.454836          -12.37670
     90       2.00000          -0.437101          -11.89413
     91       2.00000          -0.430858          -11.72425
     92       2.00000          -0.424508          -11.55144
     93       2.00000          -0.415994          -11.31977
     94       2.00000          -0.407030          -11.07586
     95       2.00000          -0.403487          -10.97944
     96       2.00000          -0.394832          -10.74394
     97       2.00000          -0.360395           -9.80684
     98       2.00000          -0.340043           -9.25304
     99       0.00000          -0.298218           -8.11493
    100       0.00000          -0.235361           -6.40451
    101       0.00000          -0.227684           -6.19560
    102       0.00000          -0.217303           -5.91313
    103       0.00000          -0.202510           -5.51057
    104       0.00000          -0.200182           -5.44724
    105       0.00000          -0.199981           -5.44176
    106       0.00000          -0.159033           -4.32751
    107       0.00000          -0.152965           -4.16240
    108       0.00000          -0.147631           -4.01724
    109       0.00000          -0.104458           -2.84244
    110       0.00000          -0.101250           -2.75514
    111       0.00000          -0.098490           -2.68004
    112       0.00000          -0.079954           -2.17565
    113       0.00000          -0.073945           -2.01215
    114       0.00000          -0.066405           -1.80696
    115       0.00000          -0.060765           -1.65349
    116       0.00000          -0.059455           -1.61785
    117       0.00000          -0.048481           -1.31924
    118       0.00000          -0.043660           -1.18805
    119       0.00000          -0.039038           -1.06228
    120       0.00000          -0.034083           -0.92745
    121       0.00000          -0.031637           -0.86088
    122       0.00000          -0.027012           -0.73504
    123       0.00000          -0.017509           -0.47645
    124       0.00000          -0.017300           -0.47075
    125       0.00000          -0.010422           -0.28360
    126       0.00000          -0.008420           -0.22912
    127       0.00000          -0.006476           -0.17623
    128       0.00000          -0.002759           -0.07508
    129       0.00000          -0.000295           -0.00804
    130       0.00000           0.005726            0.15580
    131       0.00000           0.005759            0.15670
    132       0.00000           0.008008            0.21791
    133       0.00000           0.019211            0.52275
    134       0.00000           0.019977            0.54360
    135       0.00000           0.029080            0.79132
    136       0.00000           0.030715            0.83580
    137       0.00000           0.033045            0.89920
    138       0.00000           0.036840            1.00248
    139       0.00000           0.040878            1.11235
    140       0.00000           0.041825            1.13811
    141       0.00000           0.043144            1.17400
    142       0.00000           0.052689            1.43373
    143       0.00000           0.053000            1.44221
    144       0.00000           0.054869            1.49305
    145       0.00000           0.054872            1.49315
    146       0.00000           0.057098            1.55371
    147       0.00000           0.061947            1.68567
    148       0.00000           0.069569            1.89307
    149       0.00000           0.069921            1.90266
    150       0.00000           0.071670            1.95023
    151       0.00000           0.073983            2.01319
    152       0.00000           0.078287            2.13030
    153       0.00000           0.079921            2.17475
    154       0.00000           0.081610            2.22073
    155       0.00000           0.083604            2.27497
    156       0.00000           0.088173            2.39932
    157       0.00000           0.090418            2.46041
    158       0.00000           0.094840            2.58072
    159       0.00000           0.097470            2.65229
    160       0.00000           0.101031            2.74919
    161       0.00000           0.102843            2.79850
    162       0.00000           0.108019            2.93934
    163       0.00000           0.109578            2.98177
    164       0.00000           0.113065            3.07664
    165       0.00000           0.113949            3.10070
    166       0.00000           0.122986            3.34661
    167       0.00000           0.128205            3.48865
    168       0.00000           0.133705            3.63829
    169       0.00000           0.136108            3.70370
    170       0.00000           0.139555            3.79748
    171       0.00000           0.141787            3.85822
    172       0.00000           0.144636            3.93575
    173       0.00000           0.145170            3.95028
    174       0.00000           0.146688            3.99158
    175       0.00000           0.149681            4.07304
    176       0.00000           0.151976            4.13549
    177       0.00000           0.153203            4.16887
    178       0.00000           0.156143            4.24886
    179       0.00000           0.160344            4.36319
    180       0.00000           0.162082            4.41046
    181       0.00000           0.164413            4.47391
    182       0.00000           0.167843            4.56725
    183       0.00000           0.171434            4.66495
    184       0.00000           0.179956            4.89686
    185       0.00000           0.181210            4.93099
    186       0.00000           0.186824            5.08375
    187       0.00000           0.191404            5.20836
    188       0.00000           0.192898            5.24901
    189       0.00000           0.197764            5.38142
    190       0.00000           0.202250            5.50350
    191       0.00000           0.204845            5.57411
    192       0.00000           0.206835            5.62827
    193       0.00000           0.206974            5.63205
    194       0.00000           0.208429            5.67165
    195       0.00000           0.210831            5.73699
    196       0.00000           0.218722            5.95172
    197       0.00000           0.218837            5.95485
    198       0.00000           0.229155            6.23562
    199       0.00000           0.229803            6.25325
    200       0.00000           0.234380            6.37780
    201       0.00000           0.238623            6.49327
    202       0.00000           0.238814            6.49846
    203       0.00000           0.243152            6.61649
    204       0.00000           0.249670            6.79386
    205       0.00000           0.251834            6.85276
    206       0.00000           0.256391            6.97677
    207       0.00000           0.262195            7.13470
    208       0.00000           0.265813            7.23315
    209       0.00000           0.266384            7.24869
    210       0.00000           0.275461            7.49568
    211       0.00000           0.276229            7.51656
    212       0.00000           0.282798            7.69532

  Highest occupied state (VBM) at     -9.25304234 eV
  | Occupation number:      2.00000000

  Lowest unoccupied state (CBM) at    -8.11493413 eV
  | Occupation number:      0.00000000

  Overall HOMO-LUMO gap:      1.13810821 eV.
  Calculating total energy contributions from superposition of free atom densities.

  Total energy components:
  | Sum of eigenvalues            :        -699.36652233 Ha      -19030.73134567 eV
  | XC energy correction          :        -164.96791617 Ha       -4489.00539707 eV
  | XC potential correction       :         211.90581434 Ha        5766.25059171 eV
  | Free-atom electrostatic energy:        -501.22808685 Ha      -13639.11019338 eV
  | Hartree energy correction     :           0.00000000 Ha           0.00000000 eV
  | Entropy correction            :           0.00000000 Ha           0.00000000 eV
  | ---------------------------
  | Total energy                  :       -1153.65671101 Ha      -31392.59634441 eV
  | Total energy, T -> 0          :       -1153.65671101 Ha      -31392.59634441 eV  <-- do not rely on this value for anything but (periodic) metals
  | Electronic free energy        :       -1153.65671101 Ha      -31392.59634441 eV

  Derived energy quantities:
  | Kinetic energy                :        1144.19920757 Ha       31135.24458178 eV
  | Electrostatic energy          :       -2132.88800241 Ha      -58038.83552913 eV
  | Energy correction for multipole
  | error in Hartree potential    :           0.00000000 Ha           0.00000000 eV
  | Sum of eigenvalues per atom                           :        -413.71155099 eV
  | Total energy (T->0) per atom                          :        -682.44774662 eV  <-- do not rely on this value for anything but (periodic) metals
  | Electronic free energy per atom                       :        -682.44774662 eV
  Initialize hartree_potential_storage
  Max. number of atoms included in rho_multipole:           46

  End scf initialization - timings             :  max(cpu_time)    wall_clock(cpu1)
  | Time for scf. initialization               :        7.312 s           7.372 s
  | Boundary condition initialization          :        0.001 s           0.003 s
  | Integration                                :        5.575 s           5.581 s
  | Solution of K.-S. eqns.                    :        0.215 s           0.233 s
  | Grid partitioning                          :        0.705 s           0.709 s
  | Preloading free-atom quantities on grid    :        0.013 s           0.017 s
  | Free-atom superposition energy             :        0.061 s           0.061 s
  | Total energy evaluation                    :        0.001 s           0.004 s

  Partial memory accounting:
  | Current value for overall tracked memory usage on task 0  :           3.697 MB
  | Peak value for overall tracked memory usage on task 0     :          26.259 MB after allocating zora_vector2
  | Largest tracked array allocation on task 0 so far         :           7.636 MB  when allocating hamiltonian_shell
  Note:  These values currently only include a subset of arrays which are explicitly tracked.
  The "true" memory usage will be greater.
------------------------------------------------------------

------------------------------------------------------------
          Begin self-consistency iteration #    1

  Date     :  20210620, Time     :  173708.375
------------------------------------------------------------
  Evaluating new KS density.
  Integration grid: deviation in total charge (<rho> - N_e) =   1.705303E-13
  Pulay mixing of updated and previous charge densities.

  Evaluating partitioned Hartree potential by multipole expansion.
  | Analytical far-field extrapolation by fixed multipoles:
  | Hartree multipole sum: apparent total charge =  -0.198579E-04
  Summing up the Hartree potential with load balancing.
  Time summed over all CPUs for potential: real work       23.337 s, elapsed       40.287 s
  | RMS charge density error from multipole expansion :   0.131735E-01

  Start compute_balanced_batch_distribution
  Done load balancing, time needed:      0.006 s
  Integrating Hamiltonian matrix: batch-based integration with load balancing
  Time summed over all CPUs for integration: real work      152.617 s, elapsed      174.537 s
  Time get_set_full_local_matrix_scalapack:     0.016427 s
  Start compute_balanced_batch_distribution
  Done load balancing, time needed:      0.007 s

  Updating Kohn-Sham eigenvalues and eigenvectors using ELSI and the ELPA eigensolver.
  Finished transformation to standard eigenproblem
  | Time :     0.014 s
  Starting ELPA eigensolver
  Finished solving standard eigenproblem
  | Time :     0.083 s
  Finished back-transformation of eigenvectors
  | Time :     0.004 s

  Obtaining occupation numbers and chemical potential using ELSI.
  | Chemical potential (Fermi level):    -5.53500794 eV
  Writing Kohn-Sham eigenvalues.

  State    Occupation    Eigenvalue [Ha]    Eigenvalue [eV]
      1       2.00000          -9.996067         -272.00683
      2       2.00000          -9.996067         -272.00682
      3       2.00000          -9.994192         -271.95579
      4       2.00000          -9.994192         -271.95579
      5       2.00000          -9.980971         -271.59604
      6       2.00000          -9.980971         -271.59604
      7       2.00000          -9.975383         -271.44399
      8       2.00000          -9.975383         -271.44399
      9       2.00000          -9.972701         -271.37101
     10       2.00000          -9.972701         -271.37101
     11       2.00000          -9.957852         -270.96694
     12       2.00000          -9.957852         -270.96693
     13       2.00000          -9.957798         -270.96547
     14       2.00000          -9.957798         -270.96547
     15       2.00000          -9.952325         -270.81653
     16       2.00000          -9.952325         -270.81653
     17       2.00000          -9.950908         -270.77797
     18       2.00000          -9.950907         -270.77797
     19       2.00000          -9.950337         -270.76245
     20       2.00000          -9.950337         -270.76244
     21       2.00000          -9.948415         -270.71016
     22       2.00000          -9.948415         -270.71015
     23       2.00000          -9.945684         -270.63582
     24       2.00000          -9.945684         -270.63582
     25       2.00000          -9.937720         -270.41911
     26       2.00000          -9.937720         -270.41911
     27       2.00000          -9.929752         -270.20230
     28       2.00000          -9.929752         -270.20230
     29       2.00000          -9.927433         -270.13919
     30       2.00000          -9.926526         -270.11452
     31       2.00000          -0.892402          -24.28348
     32       2.00000          -0.871734          -23.72109
     33       2.00000          -0.855742          -23.28592
     34       2.00000          -0.848431          -23.08699
     35       2.00000          -0.821194          -22.34583
     36       2.00000          -0.805418          -21.91654
     37       2.00000          -0.778976          -21.19701
     38       2.00000          -0.776448          -21.12824
     39       2.00000          -0.757701          -20.61810
     40       2.00000          -0.755688          -20.56332
     41       2.00000          -0.736466          -20.04026
     42       2.00000          -0.736236          -20.03400
     43       2.00000          -0.728370          -19.81996
     44       2.00000          -0.698934          -19.01897
     45       2.00000          -0.691695          -18.82197
     46       2.00000          -0.668185          -18.18225
     47       2.00000          -0.640872          -17.43901
     48       2.00000          -0.634308          -17.26039
     49       2.00000          -0.618518          -16.83074
     50       2.00000          -0.612753          -16.67387
     51       2.00000          -0.601049          -16.35538
     52       2.00000          -0.589672          -16.04578
     53       2.00000          -0.587062          -15.97476
     54       2.00000          -0.569765          -15.50408
     55       2.00000          -0.559820          -15.23348
     56       2.00000          -0.545429          -14.84188
     57       2.00000          -0.533731          -14.52357
     58       2.00000          -0.516755          -14.06161
     59       2.00000          -0.506842          -13.79187
     60       2.00000          -0.498922          -13.57636
     61       2.00000          -0.495328          -13.47856
     62       2.00000          -0.484685          -13.18895
     63       2.00000          -0.482811          -13.13795
     64       2.00000          -0.470739          -12.80945
     65       2.00000          -0.467346          -12.71713
     66       2.00000          -0.459824          -12.51246
     67       2.00000          -0.451029          -12.27312
     68       2.00000          -0.443898          -12.07908
     69       2.00000          -0.441474          -12.01313
     70       2.00000          -0.438935          -11.94403
     71       2.00000          -0.432594          -11.77149
     72       2.00000          -0.432055          -11.75680
     73       2.00000          -0.426424          -11.60359
     74       2.00000          -0.421608          -11.47253
     75       2.00000          -0.408897          -11.12666
     76       2.00000          -0.405123          -11.02396
     77       2.00000          -0.396830          -10.79830
     78       2.00000          -0.393004          -10.69419
     79       2.00000          -0.386709          -10.52289
     80       2.00000          -0.382863          -10.41822
     81       2.00000          -0.382522          -10.40896
     82       2.00000          -0.377202          -10.26420
     83       2.00000          -0.375301          -10.21246
     84       2.00000          -0.362265           -9.85772
     85       2.00000          -0.352431           -9.59015
     86       2.00000          -0.342886           -9.33040
     87       2.00000          -0.342123           -9.30964
     88       2.00000          -0.333987           -9.08826
     89       2.00000          -0.315925           -8.59676
     90       2.00000          -0.312967           -8.51626
     91       2.00000          -0.302587           -8.23382
     92       2.00000          -0.289047           -7.86538
     93       2.00000          -0.282864           -7.69713
     94       2.00000          -0.275342           -7.49243
     95       2.00000          -0.272762           -7.42223
     96       2.00000          -0.268677           -7.31106
     97       2.00000          -0.222342           -6.05023
     98       2.00000          -0.220014           -5.98688
     99       0.00000          -0.178035           -4.84459
    100       0.00000          -0.105135           -2.86088
    101       0.00000          -0.104991           -2.85695
    102       0.00000          -0.091798           -2.49796
    103       0.00000          -0.082484           -2.24451
    104       0.00000          -0.076994           -2.09511
    105       0.00000          -0.065826           -1.79122
    106       0.00000          -0.037429           -1.01849
    107       0.00000          -0.035884           -0.97644
    108       0.00000          -0.028850           -0.78504
    109       0.00000          -0.028081           -0.76411
    110       0.00000          -0.025541           -0.69499
    111       0.00000          -0.021308           -0.57983
    112       0.00000          -0.014307           -0.38932
    113       0.00000          -0.012688           -0.34527
    114       0.00000           0.001862            0.05068
    115       0.00000           0.003661            0.09961
    116       0.00000           0.012172            0.33121
    117       0.00000           0.021543            0.58623
    118       0.00000           0.026187            0.71259
    119       0.00000           0.028170            0.76654
    120       0.00000           0.031609            0.86011
    121       0.00000           0.042615            1.15962
    122       0.00000           0.045100            1.22723
    123       0.00000           0.049442            1.34539
    124       0.00000           0.053225            1.44833
    125       0.00000           0.062881            1.71108
    126       0.00000           0.063840            1.73717
    127       0.00000           0.068808            1.87237
    128       0.00000           0.076076            2.07014
    129       0.00000           0.080737            2.19698
    130       0.00000           0.082176            2.23613
    131       0.00000           0.086136            2.34388
    132       0.00000           0.091468            2.48897
    133       0.00000           0.092112            2.50650
    134       0.00000           0.094404            2.56888
    135       0.00000           0.096755            2.63284
    136       0.00000           0.101099            2.75104
    137       0.00000           0.101900            2.77285
    138       0.00000           0.108951            2.96471
    139       0.00000           0.108984            2.96561
    140       0.00000           0.112200            3.05311
    141       0.00000           0.113815            3.09706
    142       0.00000           0.118045            3.21218
    143       0.00000           0.121747            3.31291
    144       0.00000           0.127964            3.48208
    145       0.00000           0.129460            3.52280
    146       0.00000           0.132134            3.59554
    147       0.00000           0.136366            3.71071
    148       0.00000           0.137019            3.72847
    149       0.00000           0.138618            3.77198
    150       0.00000           0.142129            3.86753
    151       0.00000           0.146203            3.97839
    152       0.00000           0.148926            4.05248
    153       0.00000           0.149687            4.07320
    154       0.00000           0.155653            4.23552
    155       0.00000           0.158301            4.30760
    156       0.00000           0.159479            4.33965
    157       0.00000           0.162203            4.41377
    158       0.00000           0.164293            4.47065
    159       0.00000           0.167993            4.57133
    160       0.00000           0.173282            4.71524
    161       0.00000           0.173437            4.71946
    162       0.00000           0.179544            4.88565
    163       0.00000           0.183801            5.00149
    164       0.00000           0.184950            5.03274
    165       0.00000           0.188200            5.12119
    166       0.00000           0.190553            5.18522
    167       0.00000           0.191427            5.20900
    168       0.00000           0.191537            5.21198
    169       0.00000           0.197741            5.38082
    170       0.00000           0.202461            5.50924
    171       0.00000           0.210256            5.72136
    172       0.00000           0.211702            5.76071
    173       0.00000           0.216812            5.89977
    174       0.00000           0.218012            5.93241
    175       0.00000           0.219889            5.98349
    176       0.00000           0.228144            6.20811
    177       0.00000           0.228654            6.22200
    178       0.00000           0.232746            6.33334
    179       0.00000           0.233102            6.34302
    180       0.00000           0.239212            6.50929
    181       0.00000           0.243890            6.63658
    182       0.00000           0.244032            6.64045
    183       0.00000           0.249960            6.80176
    184       0.00000           0.251711            6.84940
    185       0.00000           0.254200            6.91714
    186       0.00000           0.262690            7.14815
    187       0.00000           0.266579            7.25397
    188       0.00000           0.267767            7.28630
    189       0.00000           0.269957            7.34590
    190       0.00000           0.272894            7.42582
    191       0.00000           0.274180            7.46081
    192       0.00000           0.280018            7.61969
    193       0.00000           0.284384            7.73848
    194       0.00000           0.285793            7.77682
    195       0.00000           0.292541            7.96045
    196       0.00000           0.294368            8.01017
    197       0.00000           0.295468            8.04008
    198       0.00000           0.301014            8.19102
    199       0.00000           0.310080            8.43770
    200       0.00000           0.321272            8.74226
    201       0.00000           0.322215            8.76791
    202       0.00000           0.327643            8.91563
    203       0.00000           0.332980            9.06084
    204       0.00000           0.341872            9.30282
    205       0.00000           0.345970            9.41433
    206       0.00000           0.348645            9.48713
    207       0.00000           0.349329            9.50572
    208       0.00000           0.350108            9.52691
    209       0.00000           0.354298            9.64094
    210       0.00000           0.358407            9.75276
    211       0.00000           0.360450            9.80835
    212       0.00000           0.363110            9.88072

  Highest occupied state (VBM) at     -5.98688000 eV
  | Occupation number:      2.00000000

  Lowest unoccupied state (CBM) at    -4.84459088 eV
  | Occupation number:      0.00000000

  Overall HOMO-LUMO gap:      1.14228912 eV.

  Total energy components:
  | Sum of eigenvalues            :        -667.09341330 Ha      -18152.53536659 eV
  | XC energy correction          :        -167.04306767 Ha       -4545.47314246 eV
  | XC potential correction       :         214.60175047 Ha        5839.61074631 eV
  | Free-atom electrostatic energy:        -501.22808685 Ha      -13639.11019338 eV
  | Hartree energy correction     :         -31.85075491 Ha        -866.70313846 eV
  | Entropy correction            :           0.00000000 Ha           0.00000000 eV
  | ---------------------------
  | Total energy                  :       -1152.61357226 Ha      -31364.21109459 eV
  | Total energy, T -> 0          :       -1152.61357226 Ha      -31364.21109459 eV  <-- do not rely on this value for anything but (periodic) metals
  | Electronic free energy        :       -1152.61357226 Ha      -31364.21109459 eV

  Derived energy quantities:
  | Kinetic energy                :        1153.70570528 Ha       31393.92954631 eV
  | Electrostatic energy          :       -2139.27620987 Ha      -58212.66749844 eV
  | Energy correction for multipole
  | error in Hartree potential    :          -0.06970182 Ha          -1.89668290 eV
  | Sum of eigenvalues per atom                           :        -394.62033406 eV
  | Total energy (T->0) per atom                          :        -681.83067597 eV  <-- do not rely on this value for anything but (periodic) metals
  | Electronic free energy per atom                       :        -681.83067597 eV

  Self-consistency convergence accuracy:
[...]
     42       2.00000          -0.682793          -18.57974
     43       2.00000          -0.673417          -18.32462
     44       2.00000          -0.646041          -17.57968
     45       2.00000          -0.633085          -17.22713
     46       2.00000          -0.609639          -16.58912
     47       2.00000          -0.583370          -15.87431
     48       2.00000          -0.581703          -15.82894
     49       2.00000          -0.562628          -15.30990
     50       2.00000          -0.555075          -15.10436
     51       2.00000          -0.542888          -14.77274
     52       2.00000          -0.531471          -14.46205
     53       2.00000          -0.530355          -14.43168
     54       2.00000          -0.512617          -13.94901
     55       2.00000          -0.500346          -13.61512
     56       2.00000          -0.487427          -13.26357
     57       2.00000          -0.477109          -12.98280
     58       2.00000          -0.455085          -12.38349
     59       2.00000          -0.447523          -12.17771
     60       2.00000          -0.439318          -11.95446
     61       2.00000          -0.438966          -11.94486
     62       2.00000          -0.425935          -11.59029
     63       2.00000          -0.419278          -11.40913
     64       2.00000          -0.409564          -11.14481
     65       2.00000          -0.408585          -11.11816
     66       2.00000          -0.400565          -10.89993
     67       2.00000          -0.398415          -10.84143
     68       2.00000          -0.390443          -10.62450
     69       2.00000          -0.385441          -10.48839
     70       2.00000          -0.383565          -10.43733
     71       2.00000          -0.379386          -10.32361
     72       2.00000          -0.370923          -10.09332
     73       2.00000          -0.369575          -10.05664
     74       2.00000          -0.369080          -10.04317
     75       2.00000          -0.363551           -9.89272
     76       2.00000          -0.356632           -9.70444
     77       2.00000          -0.348106           -9.47244
     78       2.00000          -0.345357           -9.39765
     79       2.00000          -0.330762           -9.00049
     80       2.00000          -0.326749           -8.89128
     81       2.00000          -0.324235           -8.82288
     82       2.00000          -0.318794           -8.67482
     83       2.00000          -0.316097           -8.60144
     84       2.00000          -0.314181           -8.54929
     85       2.00000          -0.301401           -8.20154
     86       2.00000          -0.296585           -8.07049
     87       2.00000          -0.284377           -7.73829
     88       2.00000          -0.281247           -7.65311
     89       2.00000          -0.273381           -7.43907
     90       2.00000          -0.270508           -7.36091
     91       2.00000          -0.247942           -6.74684
     92       2.00000          -0.246585           -6.70991
     93       2.00000          -0.245544           -6.68160
     94       2.00000          -0.236449           -6.43411
     95       2.00000          -0.234384           -6.37790
     96       2.00000          -0.229566           -6.24681
     97       2.00000          -0.184203           -5.01242
     98       2.00000          -0.177403           -4.82738
     99       0.00000          -0.135684           -3.69214
    100       0.00000          -0.066162           -1.80035
    101       0.00000          -0.063210           -1.72002
    102       0.00000          -0.049571           -1.34890
    103       0.00000          -0.042302           -1.15109
    104       0.00000          -0.035499           -0.96598
    105       0.00000          -0.026739           -0.72762
    106       0.00000          -0.011752           -0.31979
    107       0.00000          -0.004772           -0.12986
    108       0.00000          -0.003697           -0.10061
    109       0.00000           0.006779            0.18446
    110       0.00000           0.008749            0.23807
    111       0.00000           0.009584            0.26079
    112       0.00000           0.015448            0.42036
    113       0.00000           0.015661            0.42617
    114       0.00000           0.023957            0.65191
    115       0.00000           0.026090            0.70994
    116       0.00000           0.036151            0.98371
    117       0.00000           0.042684            1.16150
    118       0.00000           0.054774            1.49047
    119       0.00000           0.055772            1.51763
    120       0.00000           0.063029            1.71511
    121       0.00000           0.071248            1.93875
    122       0.00000           0.073554            2.00150
    123       0.00000           0.077061            2.09694
    124       0.00000           0.081087            2.20649
    125       0.00000           0.082936            2.25679
    126       0.00000           0.097160            2.64385
    127       0.00000           0.100447            2.73330
    128       0.00000           0.101463            2.76096
    129       0.00000           0.104652            2.84772
    130       0.00000           0.108983            2.96557
    131       0.00000           0.109236            2.97246
    132       0.00000           0.116426            3.16812
    133       0.00000           0.120746            3.28568
    134       0.00000           0.121596            3.30880
    135       0.00000           0.128497            3.49658
    136       0.00000           0.130472            3.55032
    137       0.00000           0.132352            3.60148
    138       0.00000           0.134700            3.66538
    139       0.00000           0.137293            3.73593
    140       0.00000           0.140838            3.83241
    141       0.00000           0.144744            3.93868
    142       0.00000           0.147011            4.00037
    143       0.00000           0.148521            4.04145
    144       0.00000           0.151722            4.12856
    145       0.00000           0.153877            4.18720
    146       0.00000           0.154971            4.21698
    147       0.00000           0.158680            4.31791
    148       0.00000           0.171740            4.67329
    149       0.00000           0.171847            4.67621
    150       0.00000           0.172594            4.69652
    151       0.00000           0.178468            4.85636
    152       0.00000           0.178682            4.86219
    153       0.00000           0.186889            5.08551
    154       0.00000           0.188391            5.12638
    155       0.00000           0.191976            5.22394
    156       0.00000           0.195648            5.32385
    157       0.00000           0.197724            5.38034
    158       0.00000           0.199459            5.42756
    159       0.00000           0.200272            5.44969
    160       0.00000           0.202764            5.51749
    161       0.00000           0.205934            5.60375
    162       0.00000           0.206042            5.60668
    163       0.00000           0.210357            5.72412
    164       0.00000           0.211754            5.76213
    165       0.00000           0.214797            5.84494
    166       0.00000           0.218312            5.94058
    167       0.00000           0.222494            6.05438
    168       0.00000           0.224767            6.11623
    169       0.00000           0.231889            6.31001
    170       0.00000           0.232590            6.32910
    171       0.00000           0.235152            6.39881
    172       0.00000           0.239385            6.51399
    173       0.00000           0.240315            6.53930
    174       0.00000           0.251066            6.83186
    175       0.00000           0.253718            6.90402
    176       0.00000           0.255434            6.95070
    177       0.00000           0.262909            7.15412
    178       0.00000           0.266382            7.24861
    179       0.00000           0.269781            7.34112
    180       0.00000           0.270734            7.36705
    181       0.00000           0.272445            7.41362
    182       0.00000           0.277665            7.55566
    183       0.00000           0.280518            7.63328
    184       0.00000           0.284174            7.73276
    185       0.00000           0.284894            7.75235
    186       0.00000           0.288325            7.84573
    187       0.00000           0.293568            7.98839
    188       0.00000           0.300767            8.18429
    189       0.00000           0.304682            8.29082
    190       0.00000           0.306294            8.33469
    191       0.00000           0.308709            8.40039
    192       0.00000           0.308804            8.40298
    193       0.00000           0.311908            8.48744
    194       0.00000           0.316111            8.60182
    195       0.00000           0.319061            8.68210
    196       0.00000           0.322389            8.77264
    197       0.00000           0.328936            8.95080
    198       0.00000           0.329957            8.97859
    199       0.00000           0.345173            9.39262
    200       0.00000           0.356016            9.68768
    201       0.00000           0.356959            9.71335
    202       0.00000           0.358456            9.75409
    203       0.00000           0.364391            9.91559
    204       0.00000           0.371594           10.11158
    205       0.00000           0.373945           10.17556
    206       0.00000           0.376725           10.25120
    207       0.00000           0.380369           10.35036
    208       0.00000           0.382160           10.39910
    209       0.00000           0.386137           10.50733
    210       0.00000           0.386974           10.53011
    211       0.00000           0.389643           10.60272
    212       0.00000           0.391363           10.64953

  Highest occupied state (VBM) at     -4.82737559 eV
  | Occupation number:      2.00000000

  Lowest unoccupied state (CBM) at    -3.69213758 eV
  | Occupation number:      0.00000000

  Overall HOMO-LUMO gap:      1.13523801 eV.

  Total energy components:
  | Sum of eigenvalues            :        -656.34472765 Ha      -17860.04874863 eV
  | XC energy correction          :        -167.98186308 Ha       -4571.01906527 eV
  | XC potential correction       :         215.80464593 Ha        5872.34319740 eV
  | Free-atom electrostatic energy:        -501.22808685 Ha      -13639.11019338 eV
  | Hartree energy correction     :         -42.46392783 Ha       -1155.50226761 eV
  | Entropy correction            :           0.00000000 Ha           0.00000000 eV
  | ---------------------------
  | Total energy                  :       -1152.21395947 Ha      -31353.33707749 eV
  | Total energy, T -> 0          :       -1152.21395947 Ha      -31353.33707749 eV  <-- do not rely on this value for anything but (periodic) metals
  | Electronic free energy        :       -1152.21395947 Ha      -31353.33707749 eV

  Derived energy quantities:
  | Kinetic energy                :        1150.69961852 Ha       31312.12976350 eV
  | Electrostatic energy          :       -2134.93171491 Ha      -58094.44777572 eV
  | Energy correction for multipole
  | error in Hartree potential    :          -0.13114169 Ha          -3.56854698 eV
  | Sum of eigenvalues per atom                           :        -388.26192932 eV
  | Total energy (T->0) per atom                          :        -681.59428429 eV  <-- do not rely on this value for anything but (periodic) metals
  | Electronic free energy per atom                       :        -681.59428429 eV
  End evaluation of scaled ZORA corrections.
  | Time for scaled ZORA corrections           :        5.388 s           5.390 s
------------------------------------------------------------

  Energy and forces in a compact form:
  | Total energy uncorrected      :         -0.313533370774891E+05 eV
  | Total energy corrected        :         -0.313533370774891E+05 eV  <-- do not rely on this value for anything but (periodic) metals
  | Electronic free energy        :         -0.313533370774891E+05 eV

  ------------------------------------ 
  Start decomposition of the XC Energy 
  ------------------------------------ 
  X and C from original XC functional choice 
  Hartree-Fock Energy :          0.000000000 Ha              0.000000000 eV
  X Energy            :       -161.371505843 Ha          -4391.142092829 eV
  C Energy            :         -6.610357236 Ha           -179.876972441 eV
  Total XC Energy     :       -167.981863079 Ha          -4571.019065270 eV
  ------------------------------------ 
  LDA X and C from self-consistent density 
  X Energy LDA        :       -146.203822659 Ha          -3978.408433750 eV
  C Energy LDA        :        -12.704266297 Ha           -345.700675006 eV
  ------------------------------------ 
  End decomposition of the XC Energy 
  ------------------------------------ 

------------------------------------------------------------

------------------------------------------------------------------------------
  Final output of selected total energy values:

  The following output summarizes some interesting total energy values
  at the end of a run (AFTER all relaxation, molecular dynamics, etc.).

  | Total energy of the DFT / Hartree-Fock s.c.f. calculation      :         -31353.337077489 eV
  | Final zero-broadening corrected energy (caution - metals only) :         -31353.337077489 eV
  | For reference only, the value of 1 Hartree used in FHI-aims is :             27.211384500 eV

  Before relying on these values, please be sure to understand exactly which
  total energy value is referred to by a given number. Different objects may
  all carry the same name 'total energy'. Definitions:

  Total energy of the DFT / Hartree-Fock s.c.f. calculation:
  | Note that this energy does not include ANY quantities calculated after the
  | s.c.f. cycle, in particular not ANY RPA, MP2, etc. many-body perturbation terms.
  | Scalar relativistic effects have been included in the 'scaled ZORA' approximation.

  Final zero-broadening corrected energy:
  | For metallic systems only, a broadening of the occupation numbers at the Fermi
  | level can be extrapolated back to zero broadening by an electron-gas inspired
  | formula. For all systems that are not real metals, this value can be
  | meaningless and should be avoided.

------------------------------------------------------------------------------
  Methods described in the following list of references were used in this FHI-aims run.
  If you publish the results, please make sure to cite these reference if they apply.
  FHI-aims is an academic code, and for our developers (often, Ph.D. students
  and postdocs), scientific credit in the community is essential.
  Thank you for helping us!

  For any use of FHI-aims, please cite:

    Volker Blum, Ralf Gehrke, Felix Hanke, Paula Havu, Ville Havu,
    Xinguo Ren, Karsten Reuter, and Matthias Scheffler
    'Ab initio molecular simulations with numeric atom-centered orbitals'
    Computer Physics Communications 180, 2175-2196 (2009)
    http://dx.doi.org/10.1016/j.cpc.2009.06.022


  The scalable eigensolver library ELPA was used in your run.
  ELPA is essential especially for large systems on hundreds or thousands of CPUs.
  For ELPA, please cite:

    Andreas Marek, Volker Blum, Rainer Johanni, Ville Havu, Bruno Lang,
    Thomas Auckenthaler, Alexander Heinecke, Hans-Joachim Bungartz, and Hermann Lederer,
    'The ELPA Library - Scalable Parallel Eigenvalue Solutions
    for Electronic Structure Theory and Computational Science'
    The Journal of Physics: Condensed Matter 26, 213201 (2014).
    http://dx.doi.org/10.1088/0953-8984/26/21/213201


  The ELSI infrastructure was used in your run to solve the Kohn-Sham electronic structure.
  Please check out http://elsi-interchange.org to learn more.
  If scalability is important for your project, please acknowledge ELSI by citing:

    V. W-z. Yu, F. Corsetti, A. Garcia, W. P. Huhn, M. Jacquelin, W. Jia,
    B. Lange, L. Lin, J. Lu, W. Mi, A. Seifitokaldani, A. Vazquez-Mayagoitia,
    C. Yang, H. Yang, and V. Blum
    'ELSI: A unified software interface for Kohn-Sham electronic structure solvers'
    Computer Physics Communications 222, 267-285 (2018).
    http://dx.doi.org/10.1016/j.cpc.2017.09.007


  For the real-space grid partitioning and parallelization used in this calculation, please cite:

    Ville Havu, Volker Blum, Paula Havu, and Matthias Scheffler,
    'Efficient O(N) integration for all-electron electronic structure calculation'
    'using numerically tabulated basis functions'
    Journal of Computational Physics 228, 8367-8379 (2009).
    http://dx.doi.org/10.1016/j.jcp.2009.08.008

  Of course, there are many other important community references, e.g., those cited in the
  above references. Our list is limited to references that describe implementations in the
  FHI-aims code. The reason is purely practical (length of this list) - please credit others as well.

------------------------------------------------------------
          Leaving FHI-aims.
          Date     :  20210620, Time     :  173839.027

          Computational steps:
          | Number of self-consistency cycles          :           18
          | Number of SCF (re)initializations          :            1

          Detailed time accounting                     :  max(cpu_time)    wall_clock(cpu1)
          | Total time                                 :       98.208 s          98.399 s
          | Preparation time                           :        0.189 s           0.197 s
          | Boundary condition initalization           :        0.001 s           0.003 s
          | Grid partitioning                          :        0.705 s           0.709 s
          | Preloading free-atom quantities on grid    :        0.013 s           0.017 s
          | Free-atom superposition energy             :        0.061 s           0.061 s
          | Total time for integrations                :       57.421 s          57.429 s
          | Total time for solution of K.-S. equations :        2.772 s           2.796 s
          | Total time for density update              :       21.505 s          21.453 s
          | Total time for mixing                      :        0.138 s           0.141 s
          | Total time for Hartree multipole update    :        0.159 s           0.165 s
          | Total time for Hartree multipole sum       :        8.852 s           8.858 s
          | Total time for total energy evaluation     :        0.006 s           0.036 s
          | Total time for scaled ZORA corrections     :        5.388 s           5.390 s

          Partial memory accounting:
          | Residual value for overall tracked memory usage across tasks :     0.000000 MB (should be 0.000000 MB)
          | Peak values for overall tracked memory usage (after allocating zora_vector2):
          |   Minimum:       26.774 MB (on task  1)
          |   Maximum:       34.313 MB (on task 16)
          |   Average:       30.418 MB
          | Largest tracked array allocation (hamiltonian_shell):
          |   Minimum:        7.636 MB (on task  1)
          |   Maximum:        7.636 MB (on task  1)
          |   Average:        7.636 MB
          Note:  These values currently only include a subset of arrays which are explicitly tracked.
          The "true" memory usage will be greater.

          Have a nice day.
------------------------------------------------------------
