  MPI-parallelism will be employed.
------------------------------------------------------------
          Invoking FHI-aims ...
          Version 180607
          Git rev. (modified): 6724847 Fix JSON memory corruption in scf_solver
          Compiled on 2018/06/27 at 16:00:31 on host coe.psc.edu.

          When using FHI-aims, please cite the following reference:

          Volker Blum, Ralf Gehrke, Felix Hanke, Paula Havu,
          Ville Havu, Xinguo Ren, Karsten Reuter, and Matthias Scheffler,
          'Ab Initio Molecular Simulations with Numeric Atom-Centered Orbitals',
          Computer Physics Communications 180, 2175-2196 (2009)

          For any questions about FHI-aims, please visit the aimsclub website
          with its forums and wiki. Contributions to both the forums and the
          wiki are warmly encouraged - they are for you, and everyone is welcome there.

------------------------------------------------------------



  Date     :  20210620, Time     :  172336.067
  Time zero on CPU 1             :   0.183395000000000E+00  s.
  Internal wall clock time zero  :           393441816.067  s.

  FHI-aims created a unique identifier for this run for later identification
  aims_uuid : 11B4F66A-D77A-4C18-A05C-3854C601610D

  Using       56 parallel tasks.
  Task        0 on host d001 reporting.
  Task        1 on host d001 reporting.
  Task        2 on host d001 reporting.
  Task        3 on host d001 reporting.
  Task        4 on host d001 reporting.
  Task        5 on host d001 reporting.
  Task        6 on host d001 reporting.
  Task        7 on host d001 reporting.
  Task        8 on host d001 reporting.
  Task        9 on host d001 reporting.
  Task       10 on host d001 reporting.
  Task       11 on host d001 reporting.
  Task       12 on host d001 reporting.
  Task       13 on host d001 reporting.
  Task       14 on host d001 reporting.
  Task       15 on host d001 reporting.
  Task       16 on host d001 reporting.
  Task       17 on host d001 reporting.
  Task       18 on host d001 reporting.
  Task       19 on host d001 reporting.
  Task       20 on host d001 reporting.
  Task       21 on host d001 reporting.
  Task       22 on host d001 reporting.
  Task       23 on host d001 reporting.
  Task       24 on host d001 reporting.
  Task       25 on host d001 reporting.
  Task       26 on host d001 reporting.
  Task       27 on host d001 reporting.
  Task       28 on host d001 reporting.
  Task       29 on host d001 reporting.
  Task       30 on host d001 reporting.
  Task       31 on host d001 reporting.
  Task       32 on host d001 reporting.
  Task       33 on host d001 reporting.
  Task       34 on host d001 reporting.
  Task       35 on host d001 reporting.
  Task       36 on host d001 reporting.
  Task       37 on host d001 reporting.
  Task       38 on host d001 reporting.
  Task       39 on host d001 reporting.
  Task       40 on host d001 reporting.
  Task       41 on host d001 reporting.
  Task       42 on host d001 reporting.
  Task       43 on host d001 reporting.
  Task       44 on host d001 reporting.
  Task       45 on host d001 reporting.
  Task       46 on host d001 reporting.
  Task       47 on host d001 reporting.
  Task       48 on host d001 reporting.
  Task       49 on host d001 reporting.
  Task       50 on host d001 reporting.
  Task       51 on host d001 reporting.
  Task       52 on host d001 reporting.
  Task       53 on host d001 reporting.
  Task       54 on host d001 reporting.
  Task       55 on host d001 reporting.

  Performing system and environment tests:
  *** Environment variable OMP_NUM_THREADS is not set
  *** For performance reasons you might want to set it to 1
  | Stacksize not measured: no C compiler
  | Checking for scalapack...
  | Testing pdtran()...
  | All pdtran() tests passed.

  Obtaining array dimensions for all initial allocations:
  
  -----------------------------------------------------------------------
  Parsing control.in (first pass over file, find array dimensions only).
  The contents of control.in will be repeated verbatim below
  unless switched off by setting 'verbatim_writeout .false.' .
  in the first line of control.in .
  -----------------------------------------------------------------------
  
  #===============================================================================
  # FHI-aims file: ./Runs/es/control.in
  # Created using the Atomic Simulation Environment (ASE)
  # Mon Jan 13 16:04:38 2020
  #===============================================================================
  xc                                 pbe
  relativistic                       zora scalar 1e-12
  occupation_type                    gaussian 0.0001
  load_balancing                     .true.
  KS_method                          scalapack_fast
  mixer                              pulay
  n_max_pulay                        5
  charge_mix_param                   0.4
  sc_accuracy_etot                   1e-6
  sc_accuracy_eev                    1e-4
  sc_accuracy_rho                    1e-6
  sc_iter_limit                      100
  prodbas_threshold                  1e-4
  basis_threshold                    1e-5
  override_illconditioning           .true.
  use_logsbt                         .true.
  spin                               none
  charge                             0
  #===============================================================================
  
  ################################################################################
  #
  #  FHI-aims code project
  # Volker Blum, Fritz Haber Institute Berlin, 2009
  #
  #  Suggested "tight" defaults for H atom (to be pasted into control.in file)
  #
  ################################################################################
    species        H
  #     global species definitions
      nucleus             1
      mass                1.00794
  #
      l_hartree           6
  #
      cut_pot             4.0  2.0  1.0
      basis_dep_cutoff    1e-4
  #
      radial_base         24 7.0
      radial_multiplier   2
      angular_grids       specified
        division   0.1930   50
        division   0.3175  110
        division   0.4293  194
        division   0.5066  302
        division   0.5626  434
  #      division   0.5922  590
  #      division   0.6227  974
  #      division   0.6868 1202
  #      outer_grid  770
        outer_grid  434
  ################################################################################
  #
  #  Definition of "minimal" basis
  #
  ################################################################################
  #     valence basis states
      valence      1  s   1.
  #     ion occupancy
      ion_occ      1  s   0.5
  ################################################################################
  #
  #  Suggested additional basis functions. For production calculations,
  #  uncomment them one after another (the most important basis functions are
  #  listed first).
  #
  #  Basis constructed for dimers: 0.5 A, 0.7 A, 1.0 A, 1.5 A, 2.5 A
  #
  ################################################################################
  #  "First tier" - improvements: -1014.90 meV to -62.69 meV
       hydro 2 s 2.1
       hydro 2 p 3.5
  #  "Second tier" - improvements: -12.89 meV to -1.83 meV
       hydro 1 s 0.85
       hydro 2 p 3.7
       hydro 2 s 1.2
       hydro 3 d 7
  #  "Third tier" - improvements: -0.25 meV to -0.12 meV
  #     hydro 4 f 11.2
  #     hydro 3 p 4.8
  #     hydro 4 d 9
  #     hydro 3 s 3.2
  ################################################################################
  #
  # For methods that use the localized form of the "resolution of identity" for
  # the two-electron Coulomb operator (RI_method LVL), particularly Hartree-Fock and
  # hybrid density functional calculations, the highest accuracy can be obtained by
  # uncommenting the line beginning with "for_aux"  below, thus adding an extra g radial
  # function to the construction of the product basis set for the expansion.
  # See Ref. New J. Phys. 17, 093020 (2015) for more information, particularly Figs. 1 and 6.
  #
  ################################################################################
  #
  # for_aux hydro 5 g 6.0
  ################################################################################
  #
  #  FHI-aims code project
  # Volker Blum, Fritz Haber Institute Berlin, 2009
  #
  #  Suggested "tight" defaults for C atom (to be pasted into control.in file)
  #
  ################################################################################
    species        C
  #     global species definitions
      nucleus             6
      mass                12.0107
  #
      l_hartree           6
  #
      cut_pot             4.0  2.0  1.0
      basis_dep_cutoff    1e-4
  #
      radial_base         34 7.0
      radial_multiplier   2
      angular_grids specified
        division   0.2187   50
        division   0.4416  110
        division   0.6335  194
        division   0.7727  302
        division   0.8772  434
  #      division   0.9334  590
  #      division   0.9924  770
  #      division   1.0230  974
  #      division   1.5020 1202
  #     outer_grid  974
        outer_grid  434
  ################################################################################
  #
  #  Definition of "minimal" basis
  #
  ################################################################################
  #     valence basis states
      valence      2  s   2.
      valence      2  p   2.
  #     ion occupancy
      ion_occ      2  s   1.
      ion_occ      2  p   1.
  ################################################################################
  #
  #  Suggested additional basis functions. For production calculations,
  #  uncomment them one after another (the most important basis functions are
  #  listed first).
  #
  #  Constructed for dimers: 1.0 A, 1.25 A, 1.5 A, 2.0 A, 3.0 A
  #
  ################################################################################
  #  "First tier" - improvements: -1214.57 meV to -155.61 meV
       hydro 2 p 1.7
       hydro 3 d 6
       hydro 2 s 4.9
  #  "Second tier" - improvements: -67.75 meV to -5.23 meV
       hydro 4 f 9.8
       hydro 3 p 5.2
       hydro 3 s 4.3
       hydro 5 g 14.4
       hydro 3 d 6.2
  #  "Third tier" - improvements: -2.43 meV to -0.60 meV
  #     hydro 2 p 5.6
  #     hydro 2 s 1.4
  #     hydro 3 d 4.9
  #     hydro 4 f 11.2
  #  "Fourth tier" - improvements: -0.39 meV to -0.18 meV
  #     hydro 2 p 2.1
  #     hydro 5 g 16.4
  #     hydro 4 d 13.2
  #     hydro 3 s 13.6
  #     hydro 4 f 17.6
  #  Further basis functions - improvements: -0.08 meV and below
  #     hydro 3 s 2
  #     hydro 3 p 6
  #     hydro 4 d 20
  ################################################################################
  #
  # For methods that use the localized form of the "resolution of identity" for
  # the two-electron Coulomb operator (RI_method LVL), particularly Hartree-Fock and
  # hybrid density functional calculations, the highest accuracy can be obtained by
  # uncommenting the line beginning with "for_aux"  below, thus adding an extra g radial
  # function to the construction of the product basis set for the expansion.
  # See Ref. New J. Phys. 17, 093020 (2015) for more information, particularly Figs. 1 and 6.
  #
  ################################################################################
  #
  # for_aux hydro 5 g 6.0
  
  -----------------------------------------------------------------------
  Completed first pass over input file control.in .
  -----------------------------------------------------------------------
  
  
  -----------------------------------------------------------------------
  Parsing geometry.in (first pass over file, find array dimensions only).
  The contents of geometry.in will be repeated verbatim below
  unless switched off by setting 'verbatim_writeout .false.' .
  in the first line of geometry.in .
  -----------------------------------------------------------------------
  
  #=======================================================
  # FHI-aims file: geometry.in
  # Created using the Atomic Simulation Environment (ASE)
  # Sun Jun 20 15:47:01 2021
  #=======================================================
  atom 13.5926729999999996 26.7517980000000009 27.0035680000000013 C
  atom 12.7114899999999995 25.7930260000000011 27.5785519999999984 C
  atom 13.4402019999999993 27.0932570000000013 25.6277180000000016 C
  atom 14.6073350000000008 27.3778860000000002 27.7500830000000001 C
  atom 11.7337249999999997 25.1993289999999988 26.8291339999999998 C
  atom 12.8293429999999997 25.5483070000000012 28.6344509999999985 H
  atom 12.3956970000000002 26.4794139999999985 24.8737710000000014 C
  atom 14.3116179999999993 28.0406990000000000 25.0166170000000001 C
  atom 14.7153659999999995 27.1338520000000010 28.8056340000000013 H
  atom 15.4456520000000008 28.2873030000000014 27.1558209999999995 C
  atom 11.0616610000000009 24.4643820000000005 27.2692850000000000 H
  atom 11.5655190000000001 25.5472600000000014 25.4790659999999995 C
  atom 12.2139260000000007 26.8570710000000012 23.4990820000000014 C
  atom 14.1146539999999998 28.3881440000000005 23.5915250000000007 C
  atom 15.3045760000000008 28.6170200000000001 25.8009920000000008 C
  atom 16.2345380000000006 28.7643239999999984 27.7315019999999990 H
  atom 10.7676800000000004 25.0940620000000010 24.8960690000000007 H
  atom 11.3838570000000008 26.3827590000000001 22.9762430000000002 H
  atom 13.0153459999999992 27.7588749999999997 22.8624310000000008 C
  atom 14.9160740000000001 29.2899479999999990 22.9548740000000002 C
  atom 16.0012200000000000 29.3387700000000002 25.3802349999999990 H
  atom 12.8183819999999997 28.1063200000000002 21.4373390000000015 C
  atom 14.7343030000000006 29.6676049999999982 21.5801850000000002 C
  atom 15.7461430000000000 29.7642600000000002 23.4777130000000014 H
  atom 11.8254239999999999 27.5299990000000001 20.6529640000000008 C
  atom 13.6897979999999997 29.0537610000000015 20.8262380000000000 C
  atom 15.5644810000000007 30.5997589999999988 20.9748899999999985 C
  atom 11.1287800000000008 26.8082490000000000 21.0737209999999990 H
  atom 11.6843480000000000 27.8597159999999988 19.2981349999999985 C
  atom 13.5373269999999994 29.3952209999999994 19.4503869999999992 C
  atom 15.3962749999999993 30.9476900000000015 19.6248220000000018 C
  atom 16.3623200000000004 31.0529569999999993 21.5578870000000009 H
  atom 10.8954620000000002 27.3826949999999982 18.7224539999999990 H
  atom 12.5226649999999999 28.7691330000000001 18.7038720000000005 C
  atom 14.4185099999999995 30.3539929999999991 18.8754039999999996 C
  atom 16.0683390000000017 31.6826369999999997 19.1846710000000016 H
  atom 12.4146339999999995 29.0131659999999982 17.6483220000000003 H
  atom 14.3006569999999993 30.5987119999999990 17.8195049999999995 H
  
  -----------------------------------------------------------------------
  Completed first pass over input file geometry.in .
  -----------------------------------------------------------------------
  

  Basic array size parameters:
  | Number of species                 :        2
  | Number of atoms                   :       38
  | Max. basis fn. angular momentum   :        4
  | Max. atomic/ionic basis occupied n:        2
  | Max. number of basis fn. types    :        2
  | Max. radial fns per species/type  :        8
  | Max. logarithmic grid size        :     1277
  | Max. radial integration grid size :       69
  | Max. angular integration grid size:      434
  | Max. angular grid division number :        8
  | Radial grid for Hartree potential :     1277
  | Number of spin channels           :        1

------------------------------------------------------------
          Reading file control.in.
------------------------------------------------------------
  XC: Using PBE gradient-corrected functionals.
  Scalar relativistic treatment of kinetic energy: ZORA.
  Threshold value for ZORA:   0.100000E-11
  Occupation type: Gaussian broadening, width =   0.100000E-03 eV.
  Since 'load_balancing .true.' is present in control.in, automatically turning on 'use_local_index .true.'.
  Using load balancing for integrations.
  Kohn-Sham electronic structure solved by the ELSI library.
  Using pulay charge density mixing.
  Pulay mixing - number of memorized iterations:    5
  Charge density mixing - mixing parameter:     0.4000
  Convergence accuracy of total energy:  0.1000E-05
  Convergence accuracy of sum of eigenvalues:  0.1000E-03
  Convergence accuracy of self-consistent charge density:  0.1000E-05
  Maximum number of s.-c. iterations  :   100
  * Ignoring prodbas_threshold
  Threshold for basis singularities:  0.1000E-04
  override_illconditioning: Explicitly overriding any built-in checks for an ill-conditioned overlap matrix.
  *** WARNING: If you use this flag, you should really know what you are doing.
  *** DO NOT keep this flag set by default in all your control.in files.
  Using 1D integrations for auxiliary 2-center integrals.
  Spin treatment: No spin polarisation.
  Charge =   0.000000E+00: Neutral system requested explicitly.
 
  Reading configuration options for species H                   .
  | Found nuclear charge :   1.0000
  | Found atomic mass :    1.00794000000000      amu
  | Found l_max for Hartree potential  :   6
  | Found cutoff potl. onset [A], width [A], scale factor :    4.00000    2.00000    1.00000
  | Threshold for basis-dependent cutoff potential is   0.100000E-03
  | Found data for basic radial integration grid :    24 points, outermost radius =    7.000 A
  | Found multiplier for basic radial grid :   2
  | Found angular grid specification: user-specified.
  | Specified grid contains     6 separate shells.
  | Check grid settings after all constraints further below.
  | Found free-atom valence shell :  1 s   1.000
  | No ionic wave fns used. Skipping ion_occ.
  | Found hydrogenic basis function :  2 s   2.100
  | Found hydrogenic basis function :  2 p   3.500
  | Found hydrogenic basis function :  1 s   0.850
  | Found hydrogenic basis function :  2 p   3.700
  | Found hydrogenic basis function :  2 s   1.200
  | Found hydrogenic basis function :  3 d   7.000
  Species H                   : Missing cutoff potential type.
  Defaulting to exp(1/x)/(1-x)^2 type cutoff potential.
  Species H : No 'logarithmic' tag. Using default grid for free atom:
  | Default logarithmic grid data [bohr] : 0.1000E-03 0.1000E+03 0.1012E+01
  Species H : On-site basis accuracy parameter (for Gram-Schmidt orthonormalisation) not specified.
  Using default value basis_acc =  0.1000000E-03.
  Species H                   : Using default innermost maximum threshold i_radial=  2 for radial functions.
  Species H                   : Default cutoff onset for free atom density etc. : 0.40000000E+01 AA.
  Species H                   : Basic radial grid will be enhanced according to radial_multiplier =   2, to contain    49 grid points.
 
  Reading configuration options for species C                   .
  | Found nuclear charge :   6.0000
  | Found atomic mass :    12.0107000000000      amu
  | Found l_max for Hartree potential  :   6
  | Found cutoff potl. onset [A], width [A], scale factor :    4.00000    2.00000    1.00000
  | Threshold for basis-dependent cutoff potential is   0.100000E-03
  | Found data for basic radial integration grid :    34 points, outermost radius =    7.000 A
  | Found multiplier for basic radial grid :   2
  | Found angular grid specification: user-specified.
  | Specified grid contains     6 separate shells.
  | Check grid settings after all constraints further below.
  | Found free-atom valence shell :  2 s   2.000
  | Found free-atom valence shell :  2 p   2.000
  | No ionic wave fns used. Skipping ion_occ.
  | No ionic wave fns used. Skipping ion_occ.
  | Found hydrogenic basis function :  2 p   1.700
  | Found hydrogenic basis function :  3 d   6.000
  | Found hydrogenic basis function :  2 s   4.900
  | Found hydrogenic basis function :  4 f   9.800
  | Found hydrogenic basis function :  3 p   5.200
  | Found hydrogenic basis function :  3 s   4.300
  | Found hydrogenic basis function :  5 g  14.400
  | Found hydrogenic basis function :  3 d   6.200
  Species C                   : Missing cutoff potential type.
  Defaulting to exp(1/x)/(1-x)^2 type cutoff potential.
  Species C : No 'logarithmic' tag. Using default grid for free atom:
  | Default logarithmic grid data [bohr] : 0.1000E-03 0.1000E+03 0.1012E+01
  Species C : On-site basis accuracy parameter (for Gram-Schmidt orthonormalisation) not specified.
  Using default value basis_acc =  0.1000000E-03.
  Species C                   : Using default innermost maximum threshold i_radial=  2 for radial functions.
  Species C                   : Default cutoff onset for free atom density etc. : 0.40000000E+01 AA.
  Species C                   : Basic radial grid will be enhanced according to radial_multiplier =   2, to contain    69 grid points.
 
  Finished reading input file 'control.in'. Consistency checks are next.
 
  MPI_IN_PLACE appears to work with this MPI implementation.
  | Keeping use_mpi_in_place .true. (see manual).
  Target number of points in a grid batch is not set. Defaulting to  100
  Method for grid partitioning is not set. Defaulting to parallel hash+maxmin partitioning.
  Batch size limit is not set. Defaulting to    200
  By default, will store active basis functions for each batch.
  If in need of memory, prune_basis_once .false. can be used to disable this option.
  communication_type for Hartree potential was not specified.
  Defaulting to calc_hartree .
  Pulay mixer: Number of initial linear mixing iterations not set.
  Defaulting to    0 iterations.
  Work space size for distributed Hartree potential not set.
  Defaulting to   0.200000E+03 MB.
  Algorithm-dependent basis array size parameters:
  | n_max_pulay                         :        5
  Presetting      1001 iterations before the initial mixing cycle
  is restarted anyway using the sc_init_iter criterion / keyword.
  Presetting a factor      1.000 between actual scf density residual
  and density convergence criterion sc_accuracy_rho below which sc_init_iter
  takes no effect.
  Calculation of forces was not defined in control.in. No forces will be calculated.
  Geometry relaxation not requested: no relaxation will be performed.
  No accuracy limit for integral partition fn. given. Defaulting to  0.1000E-14.
  No threshold value for u(r) in integrations given. Defaulting to  0.1000E-05.
  No accuracy for occupation numbers given. Defaulting to  0.1000E-12.
  No threshold value for occupation numbers given. Defaulting to  0.0000E+00.
  No accuracy for fermi level given. Defaulting to  0.1000E-19.
  Maximum # of iterations to find E_F not set. Defaulting to  200.
  Will not use alltoall communication since running on < 1024 CPUs.
  partition_type (choice of integration weights) for integrals was not specified.
  | Using a version of the partition function of Stratmann and coworkers ('stratmann_sparse').
  | At each grid point, the set of atoms used to build the partition table is smoothly restricted to
  | only those atoms whose free-atom density would be non-zero at that grid point.
  Partitioning for Hartree potential was not defined. Using partition_type for integrals.
  | Adjusted default value of keyword multip_moments_threshold to:       0.10000000E-11
  | This value may affect high angular momentum components of the Hartree potential in periodic systems.
  No q(lm)/r^(l+1) cutoff set for long-range Hartree potential.
  | Using default value of  0.100000E-09 .
  | Verify using the multipole_threshold keyword.
  Defaulting to new monopole extrapolation.
  Density update method: automatic selection selected.
 * Warning: use_local_index and/or load_balancing needs packed_matrix_format = index
 * Changing the default setting to packed_matrix_format = index
------------------------------------------------------------


------------------------------------------------------------
          Reading geometry description geometry.in.
------------------------------------------------------------
  Input structure read successfully.
  The structure contains       38 atoms,  and a total of        158.000 electrons.

  Input geometry:
  | No unit cell requested.
  | Atomic structure:
  |       Atom                x [A]            y [A]            z [A]
  |    1: Species C            13.59267300       26.75179800       27.00356800
  |    2: Species C            12.71149000       25.79302600       27.57855200
  |    3: Species C            13.44020200       27.09325700       25.62771800
  |    4: Species C            14.60733500       27.37788600       27.75008300
  |    5: Species C            11.73372500       25.19932900       26.82913400
  |    6: Species H            12.82934300       25.54830700       28.63445100
  |    7: Species C            12.39569700       26.47941400       24.87377100
  |    8: Species C            14.31161800       28.04069900       25.01661700
  |    9: Species H            14.71536600       27.13385200       28.80563400
  |   10: Species C            15.44565200       28.28730300       27.15582100
  |   11: Species H            11.06166100       24.46438200       27.26928500
  |   12: Species C            11.56551900       25.54726000       25.47906600
  |   13: Species C            12.21392600       26.85707100       23.49908200
  |   14: Species C            14.11465400       28.38814400       23.59152500
  |   15: Species C            15.30457600       28.61702000       25.80099200
  |   16: Species H            16.23453800       28.76432400       27.73150200
  |   17: Species H            10.76768000       25.09406200       24.89606900
  |   18: Species H            11.38385700       26.38275900       22.97624300
  |   19: Species C            13.01534600       27.75887500       22.86243100
  |   20: Species C            14.91607400       29.28994800       22.95487400
  |   21: Species H            16.00122000       29.33877000       25.38023500
  |   22: Species C            12.81838200       28.10632000       21.43733900
  |   23: Species C            14.73430300       29.66760500       21.58018500
  |   24: Species H            15.74614300       29.76426000       23.47771300
  |   25: Species C            11.82542400       27.52999900       20.65296400
  |   26: Species C            13.68979800       29.05376100       20.82623800
  |   27: Species C            15.56448100       30.59975900       20.97489000
  |   28: Species H            11.12878000       26.80824900       21.07372100
  |   29: Species C            11.68434800       27.85971600       19.29813500
  |   30: Species C            13.53732700       29.39522100       19.45038700
  |   31: Species C            15.39627500       30.94769000       19.62482200
  |   32: Species H            16.36232000       31.05295700       21.55788700
  |   33: Species H            10.89546200       27.38269500       18.72245400
  |   34: Species C            12.52266500       28.76913300       18.70387200
  |   35: Species C            14.41851000       30.35399300       18.87540400
  |   36: Species H            16.06833900       31.68263700       19.18467100
  |   37: Species H            12.41463400       29.01316600       17.64832200
  |   38: Species H            14.30065700       30.59871200       17.81950500
  |

  | The smallest distance between any two atoms is         1.08687569 AA.
  |
  | The first atom of this pair is atom number                     10 .
  | The second atom of this pair is atom number                    16 .

  Number of empty states per atom not set in control.in - providing a guess from actual geometry.
  | Total number of empty states used during s.c.f. cycle:       93
  If you use a very high smearing, use empty_states (per atom!) in control.in to increase this value.

  Structure-dependent array size parameters: 
  | Maximum number of distinct radial functions  :       18
  | Maximum number of basis functions            :     1146
  | Number of Kohn-Sham states (occupied + empty):      172
------------------------------------------------------------

------------------------------------------------------------
          Preparing all fixed parts of the calculation.
------------------------------------------------------------
  Determining machine precision:
    2.225073858507201E-308
  Setting up grids for atomic and cluster calculations.

  Creating wave function, potential, and density for free atoms.

  Species: H

  List of occupied orbitals and eigenvalues:
    n    l              occ      energy [Ha]    energy [eV]
    1    0           1.0000        -0.238386        -6.4868


  Species: C

  List of occupied orbitals and eigenvalues:
    n    l              occ      energy [Ha]    energy [eV]
    1    0           2.0000       -10.049212      -273.4530
    2    0           2.0000        -0.504761       -13.7352
    2    1           2.0000        -0.193631        -5.2690

  Creating fixed part of basis set: Ionic, confined, hydrogenic.
 
  H                    hydrogenic:
 
  List of hydrogenic basis orbitals: 
    n    l      effective z      eigenvalue [eV]  inner max. [A]     outer max. [A]     outer radius [A]   
    2    0         2.100000       -14.9965           0.193243           1.317208           5.373006
    2    1         3.500000       -41.6672           0.602369           0.602369           4.056063
    1    0         0.850000        -9.8292           0.624871           0.624871           5.373006
    2    1         3.700000       -46.5653           0.573622           0.573622           3.910002
    2    0         1.200000        -4.5995           0.334980           2.228188           5.505995
    3    2         7.000000       -74.0753           0.680699           0.680699           3.769201
 
 
  C                    hydrogenic:
 
  List of hydrogenic basis orbitals: 
    n    l      effective z      eigenvalue [eV]  inner max. [A]     outer max. [A]     outer radius [A]   
    2    1         1.700000        -9.8152           1.245706           1.245706           5.401630
    3    2         6.000000       -54.4226           0.792453           0.792453           4.178599
    2    0         4.900000       -81.6681           0.082559           0.562749           3.353238
    4    3         9.800000       -81.6681           0.863254           0.863254           4.028125
    3    1         5.200000       -40.8774           0.305389           1.215618           4.898362
    3    0         4.300000       -27.9508           0.091041           1.610311           5.401630
    5    4        14.400000      -112.8510           0.917666           0.917666           3.883070
    3    2         6.200000       -58.1113           0.763917           0.763917           4.077671
 

  Adding cutoff potential to free-atom effective potential.
  Creating atomic-like basis functions for current effective potential.

  Species H                   :

  List of atomic basis orbitals and eigenvalues:
    n    l      energy [Ha]    energy [eV]    outer radius [A]
    1    0        -0.238386        -6.4868       5.373006


  Species C                   :

  List of atomic basis orbitals and eigenvalues:
    n    l      energy [Ha]    energy [eV]    outer radius [A]
    1    0       -10.049212      -273.4530       1.934409
    2    0        -0.504761       -13.7352       5.271162
    2    1        -0.193631        -5.2690       5.401630

  Assembling full basis from fixed parts.
  | Species H :   atomic orbital   1 s accepted.
  | Species H :    hydro orbital   2 s accepted.
  | Species H :    hydro orbital   1 s accepted.
  | Species H :    hydro orbital   2 s accepted.
  | Species H :    hydro orbital   2 p accepted.
  | Species H :    hydro orbital   2 p accepted.
  | Species H :    hydro orbital   3 d accepted.
  | Species C :   atomic orbital   1 s accepted.
  | Species C :    hydro orbital   2 s accepted.
  | Species C :   atomic orbital   2 s accepted.
  | Species C :    hydro orbital   3 s accepted.
  | Species C :    hydro orbital   3 p accepted.
  | Species C :   atomic orbital   2 p accepted.
  | Species C :    hydro orbital   2 p accepted.
  | Species C :    hydro orbital   3 d accepted.
  | Species C :    hydro orbital   3 d accepted.
  | Species C :    hydro orbital   4 f accepted.
  | Species C :    hydro orbital   5 g accepted.
 
  Basis size parameters after reduction:
  | Total number of radial functions:       18
  | Total number of basis functions :     1146
 
  Per-task memory consumption for arrays in subroutine allocate_ext:
  |           4.440416MB.
  Testing on-site integration grid accuracy.
  |  Species  Function  <phi|h_atom|phi> (log., in eV)  <phi|h_atom|phi> (rad., in eV)
           1        1                 -6.4870767962                 -6.4871688290
           1        2                 13.5032046589                 13.5028982997
           1        3                 32.8195184817                 32.8119941656
           1        4                 33.8513856511                 33.7670005767 ***
           1        5                 28.8544614965                 28.8544615203
           1        6                 59.6326952547                 59.6327656460
           1        7                 60.2719308513                 60.2719305949
           2        8               -273.4529726040               -273.4529710464
           2        9                -10.7721037319                -10.7721022101
           2       10                 17.6044132601                 17.6044162063
           2       11                 53.7706460658                 53.7706913770
           2       12                 15.0973290362                 15.0973256030
           2       13                  3.8545134692                  3.8545724687
           2       14                 12.1156992592                 12.1182024431
           2       15                 29.4352039302                 29.4352041816
           2       16                 54.8741144708                 54.8740268729
           2       17                 59.3556032049                 59.3556031382
           2       18                 93.4551837154                 93.4551838009
 * Note: Onsite integrals marked "***" above are less accurate than
 * onsite_accuracy_threshold =    0.03000 eV. Usually, this is harmless.
 * When in doubt, tighten the "radial" and/or "radial_multiplier" flags to check.

  Preparing densities etc. for the partition functions (integrals / Hartree potential).

  Preparations completed.
  max(cpu_time)          :      0.187 s.
  Wall clock time (cpu1) :      0.191 s.
------------------------------------------------------------

------------------------------------------------------------
          Begin self-consistency loop: Initialization.

          Date     :  20210620, Time     :  172336.429
------------------------------------------------------------

  Initializing index lists of integration centers etc. from given atomic structure:
  | Number of centers in hartree potential         :        38
  | Number of centers in hartree multipole         :        38
  | Number of centers in electron density summation:        38
  | Number of centers in basis integrals           :        38
  | Number of centers in integrals                 :        38
  | Number of centers in hamiltonian               :        38
  * Using 56 tasks for Scalapack Eigenvalue solver.
  Detailed listing of tasks and assigned k-points:
  (for non-periodic systems, the "k-point" denotes an internal label only)
   Task     0 k-point     1 on d001
   Task     1 k-point     1 on d001
   Task     2 k-point     1 on d001
   Task     3 k-point     1 on d001
   Task     4 k-point     1 on d001
   Task     5 k-point     1 on d001
   Task     6 k-point     1 on d001
   Task     7 k-point     1 on d001
   Task     8 k-point     1 on d001
   Task     9 k-point     1 on d001
   Task    10 k-point     1 on d001
   Task    11 k-point     1 on d001
   Task    12 k-point     1 on d001
   Task    13 k-point     1 on d001
   Task    14 k-point     1 on d001
   Task    15 k-point     1 on d001
   Task    16 k-point     1 on d001
   Task    17 k-point     1 on d001
   Task    18 k-point     1 on d001
   Task    19 k-point     1 on d001
   Task    20 k-point     1 on d001
   Task    21 k-point     1 on d001
   Task    22 k-point     1 on d001
   Task    23 k-point     1 on d001
   Task    24 k-point     1 on d001
   Task    25 k-point     1 on d001
   Task    26 k-point     1 on d001
   Task    27 k-point     1 on d001
   Task    28 k-point     1 on d001
   Task    29 k-point     1 on d001
   Task    30 k-point     1 on d001
   Task    31 k-point     1 on d001
   Task    32 k-point     1 on d001
   Task    33 k-point     1 on d001
   Task    34 k-point     1 on d001
   Task    35 k-point     1 on d001
   Task    36 k-point     1 on d001
   Task    37 k-point     1 on d001
   Task    38 k-point     1 on d001
   Task    39 k-point     1 on d001
   Task    40 k-point     1 on d001
   Task    41 k-point     1 on d001
   Task    42 k-point     1 on d001
   Task    43 k-point     1 on d001
   Task    44 k-point     1 on d001
   Task    45 k-point     1 on d001
   Task    46 k-point     1 on d001
   Task    47 k-point     1 on d001
   Task    48 k-point     1 on d001
   Task    49 k-point     1 on d001
   Task    50 k-point     1 on d001
   Task    51 k-point     1 on d001
   Task    52 k-point     1 on d001
   Task    53 k-point     1 on d001
   Task    54 k-point     1 on d001
   Task    55 k-point     1 on d001
  Tasks:    56 split into      8 X      7 BLACS grid
  Calculating block size based on n_basis =         1146 max_nprow =            8 max_npcol =            7
  ScaLAPACK block size set to:           16
  Allocating        0.203 MB for ovlp
  Allocating        0.203 MB for ham
  Allocating        0.203 MB for eigenvec
  Required Scalapack workspace - INTEGER:            1 REAL:             1
  Partitioning the integration grid into batches with parallel hashing+maxmin method.
  | Number of batches:     5999
  | Maximal batch size:     200
  | Minimal batch size:       3
  | Average batch size:     106.046
  | Standard deviation of batch sizes:      37.719

  Integration load balanced across     56 MPI tasks.
  Work distribution over tasks is as follows:
  Task      0 has      11404 integration points.
  Task      1 has      11419 integration points.
  Task      2 has      11339 integration points.
  Task      3 has      11405 integration points.
  Task      4 has      11335 integration points.
  Task      5 has      11405 integration points.
  Task      6 has      11294 integration points.
  Task      7 has      11457 integration points.
  Task      8 has      11433 integration points.
  Task      9 has      11364 integration points.
  Task     10 has      11357 integration points.
  Task     11 has      11296 integration points.
  Task     12 has      11366 integration points.
  Task     13 has      11192 integration points.
  Task     14 has      11388 integration points.
  Task     15 has      11412 integration points.
  Task     16 has      11309 integration points.
  Task     17 has      11442 integration points.
  Task     18 has      11340 integration points.
  Task     19 has      11418 integration points.
  Task     20 has      11276 integration points.
  Task     21 has      11425 integration points.
  Task     22 has      11516 integration points.
  Task     23 has      11153 integration points.
  Task     24 has      11476 integration points.
  Task     25 has      11213 integration points.
  Task     26 has      11378 integration points.
  Task     27 has      11289 integration points.
  Task     28 has      11488 integration points.
  Task     29 has      11394 integration points.
  Task     30 has      11265 integration points.
  Task     31 has      11527 integration points.
  Task     32 has      11267 integration points.
  Task     33 has      11342 integration points.
  Task     34 has      11273 integration points.
  Task     35 has      11443 integration points.
  Task     36 has      11418 integration points.
  Task     37 has      11243 integration points.
  Task     38 has      11486 integration points.
  Task     39 has      11281 integration points.
  Task     40 has      11343 integration points.
  Task     41 has      11337 integration points.
  Task     42 has      11486 integration points.
  Task     43 has      11376 integration points.
  Task     44 has      11289 integration points.
  Task     45 has      11368 integration points.
  Task     46 has      11347 integration points.
  Task     47 has      11406 integration points.
  Task     48 has      11271 integration points.
  Task     49 has      11366 integration points.
  Task     50 has      11374 integration points.
  Task     51 has      11315 integration points.
  Task     52 has      11455 integration points.
  Task     53 has      11337 integration points.
  Task     54 has      11291 integration points.
  Task     55 has      11283 integration points.
  Initializing partition tables, free-atom densities, potentials, etc. across the integration grid (initialize_grid_storage).
  | initialize_grid_storage: Actual outermost partition radius vs. multipole_radius_free
  | (-- VB: in principle, multipole_radius_free should be larger, hence this output)
  | Species        1: Confinement radius =              6.000000000000000 AA, multipole_radius_free =              6.071692442739658 AA.
  | Species        1: outer_partition_radius set to              6.071692442739658 AA .
  | Species        2: Confinement radius =              6.000000000000000 AA, multipole_radius_free =              6.029870734432609 AA.
  | Species        2: outer_partition_radius set to              6.029870734432609 AA .
  | The sparse table of interatomic distances needs     17.0280 kbyte instead of    11.5520 kbyte of memory.
  | Using the partition_type stratmann_smoother will reduce your memory usage.
  | Net number of integration points:   636172
  | of which are non-zero points    :   513658
  Renormalizing the initial density to the exact electron count on the 3D integration grid.
  | Initial density: Formal number of electrons (from input files) :     158.0000000000
  | Integrated number of electrons on 3D grid     :     158.0000500709
  | Charge integration error                      :       0.0000500709
  | Normalization factor for density and gradient :       0.9999996831
  Obtaining max. number of non-zero basis functions in each batch (get_n_compute_maxes).
  | Maximal number of non-zero basis functions:      855
  Selecting the method for density update.
  Loop over occupied states selected for charge density update.
  Hamiltonian matrix size:
  | Size of matrix non-packed:                657231
  | Size of matrix packed:          603863
  Allocating        1.577 MB for KS_eigenvector
  use_local_index: Max. local matrix size =       532703
  Task:     0 matrix size:     131762
  Task:     1 matrix size:     171976
  Task:     2 matrix size:     233021
  Task:     3 matrix size:     282925
  Task:     4 matrix size:     443904
  Task:     5 matrix size:     354753
  Task:     6 matrix size:     496312
  Task:     7 matrix size:     165022
  Task:     8 matrix size:     147153
  Task:     9 matrix size:     169069
  Task:    10 matrix size:     384741
  Task:    11 matrix size:     450183
  Task:    12 matrix size:     467518
  Task:    13 matrix size:     412578
  Task:    14 matrix size:     264353
  Task:    15 matrix size:     250911
  Task:    16 matrix size:     235631
  Task:    17 matrix size:     532703
  Task:    18 matrix size:     480884
  Task:    19 matrix size:     434638
  Task:    20 matrix size:     368707
  Task:    21 matrix size:     159330
  Task:    22 matrix size:     141778
  Task:    23 matrix size:     105570
  Task:    24 matrix size:     368550
  Task:    25 matrix size:     265778
  Task:    26 matrix size:     242130
  Task:    27 matrix size:     188758
  Task:    28 matrix size:     225281
  Task:    29 matrix size:     286441
  Task:    30 matrix size:     376745
  Task:    31 matrix size:     146611
  Task:    32 matrix size:      89676
  Task:    33 matrix size:     198108
  Task:    34 matrix size:     236307
  Task:    35 matrix size:     412992
  Task:    36 matrix size:     439807
  Task:    37 matrix size:     403414
  Task:    38 matrix size:     203201
  Task:    39 matrix size:     134420
  Task:    40 matrix size:     212860
  Task:    41 matrix size:     125250
  Task:    42 matrix size:     470317
  Task:    43 matrix size:     496645
  Task:    44 matrix size:     528877
  Task:    45 matrix size:     345292
  Task:    46 matrix size:     364280
  Task:    47 matrix size:     217452
  Task:    48 matrix size:     222694
  Task:    49 matrix size:     432516
  Task:    50 matrix size:     353779
  Task:    51 matrix size:     311015
  Task:    52 matrix size:     236180
  Task:    53 matrix size:     205827
  Task:    54 matrix size:     146611
  Task:    55 matrix size:     131313
  Integrating Hamiltonian matrix: batch-based integration.
  Time summed over all CPUs for integration: real work       98.646 s, elapsed      186.879 s
  Time get_set_sparse_local_matrix_scalapack:     0.011527 s
  Start compute_balanced_batch_distribution
  Done load balancing, time needed:      0.007 s
  Integrating overlap matrix with loadbalancing
  Time summed over all CPUs for integration: real work       27.956 s, elapsed       32.472 s
  Time get_set_full_local_matrix_scalapack:     0.012332 s

  Updating Kohn-Sham eigenvalues and eigenvectors using ELSI and the ELPA eigensolver.
  Overlap matrix is not singular
  | Lowest and highest eigenvalues :  0.11E+02,  0.90E-04
  Finished singularity check of overlap matrix
  | Time :     0.060 s
  Finished Cholesky decomposition
  | Time :     0.014 s
  Finished transformation to standard eigenproblem
  | Time :     0.009 s
  Starting ELPA eigensolver
  Finished solving standard eigenproblem
  | Time :     0.060 s
  Finished back-transformation of eigenvectors
  | Time :     0.003 s

  Obtaining occupation numbers and chemical potential using ELSI.
  | Chemical potential (Fermi level):    -8.13369579 eV
  Writing Kohn-Sham eigenvalues.

  State    Occupation    Eigenvalue [Ha]    Eigenvalue [eV]
      1       2.00000         -10.172327         -276.80309
      2       2.00000         -10.172327         -276.80309
      3       2.00000         -10.172244         -276.80083
      4       2.00000         -10.172244         -276.80083
      5       2.00000         -10.171305         -276.77528
      6       2.00000         -10.171304         -276.77528
      7       2.00000         -10.169665         -276.73066
      8       2.00000         -10.169665         -276.73066
      9       2.00000         -10.169590         -276.72863
     10       2.00000         -10.169590         -276.72863
     11       2.00000         -10.169563         -276.72790
     12       2.00000         -10.169563         -276.72790
     13       2.00000         -10.168698         -276.70435
     14       2.00000         -10.168698         -276.70435
     15       2.00000         -10.167179         -276.66303
     16       2.00000         -10.167179         -276.66302
     17       2.00000         -10.166424         -276.64248
     18       2.00000         -10.166424         -276.64247
     19       2.00000         -10.163928         -276.57454
     20       2.00000         -10.163927         -276.57454
     21       2.00000         -10.161817         -276.51710
     22       2.00000         -10.161810         -276.51691
     23       2.00000         -10.161371         -276.50496
     24       2.00000         -10.161156         -276.49914
     25       2.00000          -1.017066          -27.67578
     26       2.00000          -1.007824          -27.42428
     27       2.00000          -0.967413          -26.32465
     28       2.00000          -0.965910          -26.28376
     29       2.00000          -0.961292          -26.15808
     30       2.00000          -0.925546          -25.18538
     31       2.00000          -0.903570          -24.58739
     32       2.00000          -0.883663          -24.04568
     33       2.00000          -0.878798          -23.91331
     34       2.00000          -0.877952          -23.89028
     35       2.00000          -0.867735          -23.61227
     36       2.00000          -0.833562          -22.68237
     37       2.00000          -0.788621          -21.45946
     38       2.00000          -0.771195          -20.98527
     39       2.00000          -0.767452          -20.88343
     40       2.00000          -0.766169          -20.84853
     41       2.00000          -0.755355          -20.55426
     42       2.00000          -0.731367          -19.90151
     43       2.00000          -0.710340          -19.32933
     44       2.00000          -0.672408          -18.29715
     45       2.00000          -0.671791          -18.28037
     46       2.00000          -0.654239          -17.80274
     47       2.00000          -0.652635          -17.75912
     48       2.00000          -0.649640          -17.67762
     49       2.00000          -0.638918          -17.38583
     50       2.00000          -0.635973          -17.30570
     51       2.00000          -0.604531          -16.45013
     52       2.00000          -0.602594          -16.39741
     53       2.00000          -0.588272          -16.00770
     54       2.00000          -0.587459          -15.98557
     55       2.00000          -0.586316          -15.95448
     56       2.00000          -0.585282          -15.92634
     57       2.00000          -0.564192          -15.35246
     58       2.00000          -0.553960          -15.07402
     59       2.00000          -0.544106          -14.80587
     60       2.00000          -0.538267          -14.64700
     61       2.00000          -0.537323          -14.62130
     62       2.00000          -0.528336          -14.37675
     63       2.00000          -0.526212          -14.31896
     64       2.00000          -0.526189          -14.31834
     65       2.00000          -0.523897          -14.25595
     66       2.00000          -0.500935          -13.63115
     67       2.00000          -0.499279          -13.58607
     68       2.00000          -0.489065          -13.30812
     69       2.00000          -0.482455          -13.12828
     70       2.00000          -0.478590          -13.02308
     71       2.00000          -0.477348          -12.98931
     72       2.00000          -0.470519          -12.80349
     73       2.00000          -0.439075          -11.94783
     74       2.00000          -0.418010          -11.37463
     75       2.00000          -0.398067          -10.83196
     76       2.00000          -0.396516          -10.78976
     77       2.00000          -0.395642          -10.76598
     78       2.00000          -0.381168          -10.37210
     79       2.00000          -0.332025           -9.03485
     80       0.00000          -0.280525           -7.63347
     81       0.00000          -0.230476           -6.27156
     82       0.00000          -0.215301           -5.85863
     83       0.00000          -0.214564           -5.83858
     84       0.00000          -0.210845           -5.73738
     85       0.00000          -0.185189           -5.03924
     86       0.00000          -0.160959           -4.37990
     87       0.00000          -0.118252           -3.21780
     88       0.00000          -0.101912           -2.77315
     89       0.00000          -0.092612           -2.52010
     90       0.00000          -0.072150           -1.96329
     91       0.00000          -0.067714           -1.84260
     92       0.00000          -0.065712           -1.78811
     93       0.00000          -0.052722           -1.43463
     94       0.00000          -0.041458           -1.12812
     95       0.00000          -0.040420           -1.09989
     96       0.00000          -0.034754           -0.94569
     97       0.00000          -0.023062           -0.62754
     98       0.00000          -0.018739           -0.50991
     99       0.00000          -0.013277           -0.36128
    100       0.00000          -0.013124           -0.35713
    101       0.00000          -0.003904           -0.10624
    102       0.00000          -0.001552           -0.04224
    103       0.00000           0.000970            0.02640
    104       0.00000           0.005193            0.14131
    105       0.00000           0.005340            0.14530
    106       0.00000           0.009355            0.25457
    107       0.00000           0.009800            0.26667
    108       0.00000           0.010529            0.28652
    109       0.00000           0.031001            0.84359
    110       0.00000           0.032765            0.89158
    111       0.00000           0.035911            0.97717
    112       0.00000           0.038321            1.04276
    113       0.00000           0.042254            1.14978
    114       0.00000           0.044619            1.21414
    115       0.00000           0.047106            1.28183
    116       0.00000           0.051419            1.39918
    117       0.00000           0.059804            1.62735
    118       0.00000           0.061881            1.68386
    119       0.00000           0.065126            1.77218
    120       0.00000           0.069070            1.87949
    121       0.00000           0.071936            1.95747
    122       0.00000           0.075564            2.05619
    123       0.00000           0.076974            2.09458
    124       0.00000           0.080909            2.20166
    125       0.00000           0.082242            2.23793
    126       0.00000           0.085405            2.32397
    127       0.00000           0.088882            2.41861
    128       0.00000           0.089725            2.44153
    129       0.00000           0.098591            2.68281
    130       0.00000           0.100470            2.73393
    131       0.00000           0.107815            2.93380
    132       0.00000           0.114495            3.11556
    133       0.00000           0.116143            3.16041
    134       0.00000           0.118909            3.23569
    135       0.00000           0.120689            3.28411
    136       0.00000           0.121022            3.29317
    137       0.00000           0.122253            3.32668
    138       0.00000           0.125108            3.40435
    139       0.00000           0.138847            3.77822
    140       0.00000           0.139269            3.78969
    141       0.00000           0.140407            3.82067
    142       0.00000           0.144976            3.94501
    143       0.00000           0.146412            3.98408
    144       0.00000           0.153979            4.18999
    145       0.00000           0.157297            4.28028
    146       0.00000           0.158212            4.30518
    147       0.00000           0.161040            4.38212
    148       0.00000           0.167133            4.54792
    149       0.00000           0.171273            4.66058
    150       0.00000           0.173801            4.72938
    151       0.00000           0.178223            4.84968
    152       0.00000           0.181605            4.94173
    153       0.00000           0.185259            5.04116
    154       0.00000           0.186140            5.06513
    155       0.00000           0.194077            5.28109
    156       0.00000           0.196344            5.34279
    157       0.00000           0.198184            5.39287
    158       0.00000           0.206513            5.61951
    159       0.00000           0.209072            5.68914
    160       0.00000           0.212866            5.79237
    161       0.00000           0.215958            5.87651
    162       0.00000           0.219836            5.98203
    163       0.00000           0.221840            6.03657
    164       0.00000           0.222449            6.05314
    165       0.00000           0.229263            6.23856
    166       0.00000           0.234190            6.37262
    167       0.00000           0.243298            6.62047
    168       0.00000           0.244649            6.65723
    169       0.00000           0.248797            6.77012
    170       0.00000           0.258897            7.04494
    171       0.00000           0.267101            7.26819
    172       0.00000           0.272282            7.40916

  Highest occupied state (VBM) at     -9.03485447 eV
  | Occupation number:      2.00000000

  Lowest unoccupied state (CBM) at    -7.63347249 eV
  | Occupation number:      0.00000000

  Overall HOMO-LUMO gap:      1.40138197 eV.
  Calculating total energy contributions from superposition of free atom densities.

  Total energy components:
  | Sum of eigenvalues            :        -559.08012390 Ha      -15213.34421762 eV
  | XC energy correction          :        -132.17398612 Ha       -3596.63715710 eV
  | XC potential correction       :         169.77420509 Ha        4619.79117285 eV
  | Free-atom electrostatic energy:        -402.26700178 Ha      -10946.24205716 eV
  | Hartree energy correction     :           0.00000000 Ha           0.00000000 eV
  | Entropy correction            :           0.00000000 Ha           0.00000000 eV
  | ---------------------------
  | Total energy                  :        -923.74690670 Ha      -25136.43225903 eV
  | Total energy, T -> 0          :        -923.74690670 Ha      -25136.43225903 eV  <-- do not rely on this value for anything but (periodic) metals
  | Electronic free energy        :        -923.74690670 Ha      -25136.43225903 eV

  Derived energy quantities:
  | Kinetic energy                :         915.25448243 Ha       24905.34163682 eV
  | Electrostatic energy          :       -1706.82740302 Ha      -46445.13673875 eV
  | Energy correction for multipole
  | error in Hartree potential    :           0.00000000 Ha           0.00000000 eV
  | Sum of eigenvalues per atom                           :        -400.35116362 eV
  | Total energy (T->0) per atom                          :        -661.48505945 eV  <-- do not rely on this value for anything but (periodic) metals
  | Electronic free energy per atom                       :        -661.48505945 eV
  Initialize hartree_potential_storage
  Max. number of atoms included in rho_multipole:           38

  End scf initialization - timings             :  max(cpu_time)    wall_clock(cpu1)
  | Time for scf. initialization               :        5.139 s           5.193 s
  | Boundary condition initialization          :        0.000 s           0.003 s
  | Integration                                :        3.960 s           3.965 s
  | Solution of K.-S. eqns.                    :        0.156 s           0.172 s
  | Grid partitioning                          :        0.471 s           0.475 s
  | Preloading free-atom quantities on grid    :        0.013 s           0.017 s
  | Free-atom superposition energy             :        0.045 s           0.046 s
  | Total energy evaluation                    :        0.001 s           0.003 s

  Partial memory accounting:
  | Current value for overall tracked memory usage on task 0  :           2.713 MB
  | Peak value for overall tracked memory usage on task 0     :          21.948 MB after allocating zora_vector2
  | Largest tracked array allocation on task 0 so far         :           5.848 MB  when allocating hamiltonian_shell
  Note:  These values currently only include a subset of arrays which are explicitly tracked.
  The "true" memory usage will be greater.
------------------------------------------------------------

------------------------------------------------------------
          Begin self-consistency iteration #    1

  Date     :  20210620, Time     :  172341.624
------------------------------------------------------------
  Evaluating new KS density.
  Integration grid: deviation in total charge (<rho> - N_e) =   5.684342E-14
  Pulay mixing of updated and previous charge densities.

  Evaluating partitioned Hartree potential by multipole expansion.
  | Analytical far-field extrapolation by fixed multipoles:
  | Hartree multipole sum: apparent total charge =   0.430049E-04
  Summing up the Hartree potential with load balancing.
  Time summed over all CPUs for potential: real work       16.434 s, elapsed       26.642 s
  | RMS charge density error from multipole expansion :   0.117967E-01

  Start compute_balanced_batch_distribution
  Done load balancing, time needed:      0.006 s
  Integrating Hamiltonian matrix: batch-based integration with load balancing
  Time summed over all CPUs for integration: real work      107.825 s, elapsed      121.484 s
  Time get_set_full_local_matrix_scalapack:     0.012590 s
  Start compute_balanced_batch_distribution
  Done load balancing, time needed:      0.005 s

  Updating Kohn-Sham eigenvalues and eigenvectors using ELSI and the ELPA eigensolver.
  Finished transformation to standard eigenproblem
  | Time :     0.011 s
  Starting ELPA eigensolver
  Finished solving standard eigenproblem
  | Time :     0.058 s
  Finished back-transformation of eigenvectors
  | Time :     0.002 s

  Obtaining occupation numbers and chemical potential using ELSI.
  | Chemical potential (Fermi level):    -5.06756228 eV
  Writing Kohn-Sham eigenvalues.

  State    Occupation    Eigenvalue [Ha]    Eigenvalue [eV]
      1       2.00000          -9.987777         -271.78125
      2       2.00000          -9.987554         -271.77517
      3       2.00000          -9.983193         -271.65649
      4       2.00000          -9.983193         -271.65649
      5       2.00000          -9.971939         -271.35028
      6       2.00000          -9.971939         -271.35027
      7       2.00000          -9.971562         -271.34000
      8       2.00000          -9.971562         -271.34000
      9       2.00000          -9.967138         -271.21962
     10       2.00000          -9.967138         -271.21962
     11       2.00000          -9.959172         -271.00287
     12       2.00000          -9.959172         -271.00286
     13       2.00000          -9.952416         -270.81903
     14       2.00000          -9.952416         -270.81903
     15       2.00000          -9.950105         -270.75614
     16       2.00000          -9.950105         -270.75614
     17       2.00000          -9.948816         -270.72106
     18       2.00000          -9.948816         -270.72105
     19       2.00000          -9.947123         -270.67498
     20       2.00000          -9.947123         -270.67498
     21       2.00000          -9.946563         -270.65976
     22       2.00000          -9.946563         -270.65975
     23       2.00000          -9.946314         -270.65298
     24       2.00000          -9.946314         -270.65298
     25       2.00000          -0.873857          -23.77887
     26       2.00000          -0.858211          -23.35310
     27       2.00000          -0.823164          -22.39943
     28       2.00000          -0.816743          -22.22471
     29       2.00000          -0.808643          -22.00430
     30       2.00000          -0.779428          -21.20932
     31       2.00000          -0.760570          -20.69617
     32       2.00000          -0.738172          -20.08668
     33       2.00000          -0.731752          -19.91200
     34       2.00000          -0.730915          -19.88922
     35       2.00000          -0.721813          -19.64154
     36       2.00000          -0.684817          -18.63481
     37       2.00000          -0.651393          -17.72530
     38       2.00000          -0.632841          -17.22048
     39       2.00000          -0.626555          -17.04942
     40       2.00000          -0.624783          -17.00120
     41       2.00000          -0.612787          -16.67477
     42       2.00000          -0.591649          -16.09958
     43       2.00000          -0.572352          -15.57448
     44       2.00000          -0.536467          -14.59800
     45       2.00000          -0.534495          -14.54434
     46       2.00000          -0.522846          -14.22737
     47       2.00000          -0.520865          -14.17347
     48       2.00000          -0.507591          -13.81225
     49       2.00000          -0.505222          -13.74778
     50       2.00000          -0.503238          -13.69380
     51       2.00000          -0.472344          -12.85313
     52       2.00000          -0.461758          -12.56509
     53       2.00000          -0.452899          -12.32400
     54       2.00000          -0.451207          -12.27798
     55       2.00000          -0.439380          -11.95613
     56       2.00000          -0.435527          -11.85130
     57       2.00000          -0.434477          -11.82272
     58       2.00000          -0.420794          -11.45039
     59       2.00000          -0.419344          -11.41093
     60       2.00000          -0.416254          -11.32684
     61       2.00000          -0.415863          -11.31621
     62       2.00000          -0.401523          -10.92599
     63       2.00000          -0.398629          -10.84725
     64       2.00000          -0.393512          -10.70802
     65       2.00000          -0.393412          -10.70529
     66       2.00000          -0.365300           -9.94032
     67       2.00000          -0.362746           -9.87083
     68       2.00000          -0.361024           -9.82395
     69       2.00000          -0.356937           -9.71274
     70       2.00000          -0.348245           -9.47624
     71       2.00000          -0.345889           -9.41211
     72       2.00000          -0.340340           -9.26111
     73       2.00000          -0.316220           -8.60477
     74       2.00000          -0.297015           -8.08219
     75       2.00000          -0.275148           -7.48715
     76       2.00000          -0.270689           -7.36582
     77       2.00000          -0.270456           -7.35949
     78       2.00000          -0.257762           -7.01405
     79       2.00000          -0.206823           -5.62795
     80       0.00000          -0.159339           -4.33582
     81       0.00000          -0.110527           -3.00759
     82       0.00000          -0.092903           -2.52802
     83       0.00000          -0.092498           -2.51700
     84       0.00000          -0.087246           -2.37409
     85       0.00000          -0.064010           -1.74179
     86       0.00000          -0.039521           -1.07543
     87       0.00000          -0.029295           -0.79716
     88       0.00000          -0.025554           -0.69537
     89       0.00000          -0.021423           -0.58296
     90       0.00000          -0.009745           -0.26519
     91       0.00000          -0.006735           -0.18328
     92       0.00000           0.000898            0.02443
     93       0.00000           0.003512            0.09557
     94       0.00000           0.008977            0.24429
     95       0.00000           0.019296            0.52507
     96       0.00000           0.022758            0.61928
     97       0.00000           0.027682            0.75326
     98       0.00000           0.031600            0.85988
     99       0.00000           0.043550            1.18506
    100       0.00000           0.049406            1.34440
    101       0.00000           0.052521            1.42917
    102       0.00000           0.062998            1.71427
    103       0.00000           0.065099            1.77142
    104       0.00000           0.080656            2.19477
    105       0.00000           0.082358            2.24106
    106       0.00000           0.082743            2.25155
    107       0.00000           0.091045            2.47746
    108       0.00000           0.095805            2.60697
    109       0.00000           0.096630            2.62943
    110       0.00000           0.099759            2.71457
    111       0.00000           0.109528            2.98040
    112       0.00000           0.110756            3.01382
    113       0.00000           0.112758            3.06829
    114       0.00000           0.115673            3.14761
    115       0.00000           0.127306            3.46419
    116       0.00000           0.127850            3.47896
    117       0.00000           0.132569            3.60740
    118       0.00000           0.133278            3.62668
    119       0.00000           0.133317            3.62774
    120       0.00000           0.136491            3.71410
    121       0.00000           0.139519            3.79649
    122       0.00000           0.141301            3.84499
    123       0.00000           0.141628            3.85388
    124       0.00000           0.148074            4.02930
    125       0.00000           0.155331            4.22678
    126       0.00000           0.159432            4.33835
    127       0.00000           0.164890            4.48690
    128       0.00000           0.168951            4.59738
    129       0.00000           0.171383            4.66357
    130       0.00000           0.173222            4.71361
    131       0.00000           0.175428            4.77365
    132       0.00000           0.178709            4.86291
    133       0.00000           0.185433            5.04588
    134       0.00000           0.188691            5.13454
    135       0.00000           0.189185            5.14799
    136       0.00000           0.190462            5.18274
    137       0.00000           0.195729            5.32605
    138       0.00000           0.196786            5.35482
    139       0.00000           0.199803            5.43691
    140       0.00000           0.203736            5.54394
    141       0.00000           0.212542            5.78356
    142       0.00000           0.212737            5.78886
    143       0.00000           0.216866            5.90122
    144       0.00000           0.218907            5.95675
    145       0.00000           0.224197            6.10072
    146       0.00000           0.225948            6.14835
    147       0.00000           0.235021            6.39524
    148       0.00000           0.236402            6.43282
    149       0.00000           0.238021            6.47688
    150       0.00000           0.240884            6.55479
    151       0.00000           0.246537            6.70862
    152       0.00000           0.251074            6.83206
    153       0.00000           0.258717            7.04005
    154       0.00000           0.259525            7.06202
    155       0.00000           0.263778            7.17776
    156       0.00000           0.270055            7.34858
    157       0.00000           0.277652            7.55531
    158       0.00000           0.278503            7.57846
    159       0.00000           0.282308            7.68199
    160       0.00000           0.287653            7.82745
    161       0.00000           0.288842            7.85978
    162       0.00000           0.293940            7.99852
    163       0.00000           0.294829            8.02271
    164       0.00000           0.299178            8.14105
    165       0.00000           0.299940            8.16178
    166       0.00000           0.305980            8.32615
    167       0.00000           0.312475            8.50288
    168       0.00000           0.326210            8.87663
    169       0.00000           0.333603            9.07780
    170       0.00000           0.334513            9.10257
    171       0.00000           0.336179            9.14788
    172       0.00000           0.338133            9.20107

  Highest occupied state (VBM) at     -5.62794595 eV
  | Occupation number:      2.00000000

  Lowest unoccupied state (CBM) at    -4.33582464 eV
  | Occupation number:      0.00000000

  Overall HOMO-LUMO gap:      1.29212131 eV.

  Total energy components:
  | Sum of eigenvalues            :        -534.23339735 Ha      -14537.23038792 eV
  | XC energy correction          :        -133.83216257 Ha       -3641.75843404 eV
  | XC potential correction       :         171.92724328 Ha        4678.37832302 eV
  | Free-atom electrostatic energy:        -402.26700178 Ha      -10946.24205716 eV
  | Hartree energy correction     :         -24.54261499 Ha        -667.83853323 eV
  | Entropy correction            :           0.00000000 Ha           0.00000000 eV
  | ---------------------------
  | Total energy                  :        -922.94793340 Ha      -25114.69108933 eV
  | Total energy, T -> 0          :        -922.94793340 Ha      -25114.69108933 eV  <-- do not rely on this value for anything but (periodic) metals
  | Electronic free energy        :        -922.94793340 Ha      -25114.69108933 eV

  Derived energy quantities:
  | Kinetic energy                :         922.59658135 Ha       25105.13031363 eV
  | Electrostatic energy          :       -1711.71235219 Ha      -46578.06296891 eV
  | Energy correction for multipole
  | error in Hartree potential    :          -0.05851836 Ha          -1.59236551 eV
  | Sum of eigenvalues per atom                           :        -382.55869442 eV
  | Total energy (T->0) per atom                          :        -660.91292340 eV  <-- do not rely on this value for anything but (periodic) metals
  | Electronic free energy per atom                       :        -660.91292340 eV

  Self-consistency convergence accuracy:
  | Change of charge density      :  0.9640E+00
  | Change of sum of eigenvalues  :  0.6761E+03 eV
  | Change of total energy        :  0.2174E+02 eV

  End self-consistency iteration #     1       :  max(cpu_time)    wall_clock(cpu1)
  | Time for this iteration                    :        3.605 s           3.613 s
  | Charge density update                      :        0.818 s           0.820 s
  | Density mixing                             :        0.002 s           0.004 s
  | Hartree multipole update                   :        0.008 s           0.009 s
  | Hartree multipole summation                :        0.485 s           0.487 s
  | Integration                                :        2.174 s           2.174 s
  | Solution of K.-S. eqns.                    :        0.102 s           0.103 s
  | Total energy evaluation                    :        0.000 s           0.000 s

  Partial memory accounting:
  | Current value for overall tracked memory usage on task 0  :           2.713 MB
  | Peak value for overall tracked memory usage on task 0     :          22.331 MB after allocating zora_vector2
  | Largest tracked array allocation on task 0 so far         :           5.848 MB  when allocating hamiltonian_shell
  Note:  These values currently only include a subset of arrays which are explicitly tracked.
  The "true" memory usage will be greater.
------------------------------------------------------------

------------------------------------------------------------
          Begin self-consistency iteration #    2

  Date     :  20210620, Time     :  172345.238
------------------------------------------------------------
  Evaluating new KS density.
  Integration grid: deviation in total charge (<rho> - N_e) =   1.705303E-13
  Pulay mixing of updated and previous charge densities.

  Evaluating partitioned Hartree potential by multipole expansion.
  | Analytical far-field extrapolation by fixed multipoles:
  | Hartree multipole sum: apparent total charge =   0.426898E-04
  Summing up the Hartree potential with load balancing.
  Time summed over all CPUs for potential: real work       16.630 s, elapsed       18.967 s
  | RMS charge density error from multipole expansion :   0.208922E-01

  Integrating Hamiltonian matrix: batch-based integration with load balancing
  Time summed over all CPUs for integration: real work      109.360 s, elapsed      113.492 s
  Time get_set_full_local_matrix_scalapack:     0.017546 s

  Updating Kohn-Sham eigenvalues and eigenvectors using ELSI and the ELPA eigensolver.
  Finished transformation to standard eigenproblem
  | Time :     0.010 s
  Starting ELPA eigensolver
  Finished solving standard eigenproblem
  | Time :     0.060 s
  Finished back-transformation of eigenvectors
  | Time :     0.003 s

  Obtaining occupation numbers and chemical potential using ELSI.
  | Chemical potential (Fermi level):    -4.16435014 eV
  Highest occupied state (VBM) at     -4.43662373 eV
  | Occupation number:      2.00000000

  Lowest unoccupied state (CBM) at    -3.16431960 eV
  | Occupation number:      0.00000000

  Overall HOMO-LUMO gap:      1.27230413 eV.

  Checking to see if s.c.f. parameters should be adjusted.

  Total energy components:
  | Sum of eigenvalues            :        -525.49952441 Ha      -14299.56961322 eV
  | XC energy correction          :        -134.58215187 Ha       -3662.16668134 eV
  | XC potential correction       :         172.89239320 Ha        4704.64138849 eV
  | Free-atom electrostatic energy:        -402.26700178 Ha      -10946.24205716 eV
  | Hartree energy correction     :         -33.38770478 Ha        -908.52567231 eV
  | Entropy correction            :           0.00000000 Ha           0.00000000 eV
  | ---------------------------
  | Total energy                  :        -922.84398964 Ha      -25111.86263554 eV
  | Total energy, T -> 0          :        -922.84398964 Ha      -25111.86263554 eV  <-- do not rely on this value for anything but (periodic) metals
  | Electronic free energy        :        -922.84398964 Ha      -25111.86263554 eV

  Derived energy quantities:
  | Kinetic energy                :         922.57926719 Ha       25104.65917132 eV
  | Electrostatic energy          :       -1710.84110496 Ha      -46554.35512552 eV
  | Energy correction for multipole
  | error in Hartree potential    :          -0.09629526 Ha          -2.62032742 eV
  | Sum of eigenvalues per atom                           :        -376.30446351 eV
  | Total energy (T->0) per atom                          :        -660.83849041 eV  <-- do not rely on this value for anything but (periodic) metals
  | Electronic free energy per atom                       :        -660.83849041 eV

  Self-consistency convergence accuracy:
  | Change of charge density      :  0.4723E+00
  | Change of sum of eigenvalues  :  0.2377E+03 eV
  | Change of total energy        :  0.2828E+01 eV

  End self-consistency iteration #     2       :  max(cpu_time)    wall_clock(cpu1)
  | Time for this iteration                    :        3.316 s           3.320 s
  | Charge density update                      :        0.819 s           0.819 s
  | Density mixing                             :        0.004 s           0.005 s
  | Hartree multipole update                   :        0.008 s           0.008 s
  | Hartree multipole summation                :        0.341 s           0.341 s
  | Integration                                :        2.030 s           2.030 s
  | Solution of K.-S. eqns.                    :        0.111 s           0.111 s
  | Total energy evaluation                    :        0.001 s           0.003 s

  Partial memory accounting:
  | Current value for overall tracked memory usage on task 0  :           2.713 MB
  | Peak value for overall tracked memory usage on task 0     :          22.332 MB after allocating zora_vector2
  | Largest tracked array allocation on task 0 so far         :           5.848 MB  when allocating hamiltonian_shell
[...]
      2       2.00000          -9.913126         -269.74989
      3       2.00000          -9.912664         -269.73731
      4       2.00000          -9.912657         -269.73713
      5       2.00000          -9.907782         -269.60446
      6       2.00000          -9.907782         -269.60446
      7       2.00000          -9.907341         -269.59247
      8       2.00000          -9.907341         -269.59247
      9       2.00000          -9.907008         -269.58341
     10       2.00000          -9.907008         -269.58341
     11       2.00000          -9.898715         -269.35775
     12       2.00000          -9.898715         -269.35775
     13       2.00000          -9.898351         -269.34785
     14       2.00000          -9.898351         -269.34784
     15       2.00000          -9.897331         -269.32008
     16       2.00000          -9.897331         -269.32008
     17       2.00000          -9.897281         -269.31872
     18       2.00000          -9.897281         -269.31871
     19       2.00000          -9.896912         -269.30867
     20       2.00000          -9.896912         -269.30867
     21       2.00000          -9.896576         -269.29953
     22       2.00000          -9.896576         -269.29952
     23       2.00000          -9.896430         -269.29556
     24       2.00000          -9.896430         -269.29555
     25       2.00000          -0.820928          -22.33859
     26       2.00000          -0.808228          -21.99300
     27       2.00000          -0.769395          -20.93629
     28       2.00000          -0.763132          -20.76588
     29       2.00000          -0.756577          -20.58750
     30       2.00000          -0.725473          -19.74112
     31       2.00000          -0.703471          -19.14243
     32       2.00000          -0.682876          -18.58200
     33       2.00000          -0.677978          -18.44872
     34       2.00000          -0.676693          -18.41376
     35       2.00000          -0.665369          -18.10562
     36       2.00000          -0.626317          -17.04296
     37       2.00000          -0.593359          -16.14612
     38       2.00000          -0.576664          -15.69183
     39       2.00000          -0.568720          -15.47566
     40       2.00000          -0.566914          -15.42653
     41       2.00000          -0.555004          -15.10241
     42       2.00000          -0.533422          -14.51515
     43       2.00000          -0.513664          -13.97752
     44       2.00000          -0.475704          -12.94457
     45       2.00000          -0.475637          -12.94274
     46       2.00000          -0.463153          -12.60303
     47       2.00000          -0.460094          -12.51979
     48       2.00000          -0.447603          -12.17990
     49       2.00000          -0.445745          -12.12933
     50       2.00000          -0.444444          -12.09393
     51       2.00000          -0.412792          -11.23263
     52       2.00000          -0.403950          -10.99203
     53       2.00000          -0.391012          -10.63997
     54       2.00000          -0.390989          -10.63936
     55       2.00000          -0.380706          -10.35954
     56       2.00000          -0.379360          -10.32291
     57       2.00000          -0.376084          -10.23377
     58       2.00000          -0.372456          -10.13505
     59       2.00000          -0.364108           -9.90789
     60       2.00000          -0.358653           -9.75944
     61       2.00000          -0.355574           -9.67565
     62       2.00000          -0.353295           -9.61363
     63       2.00000          -0.337190           -9.17540
     64       2.00000          -0.332828           -9.05671
     65       2.00000          -0.331304           -9.01525
     66       2.00000          -0.322743           -8.78229
     67       2.00000          -0.316401           -8.60972
     68       2.00000          -0.306682           -8.34525
     69       2.00000          -0.304853           -8.29547
     70       2.00000          -0.299968           -8.16253
     71       2.00000          -0.285167           -7.75979
     72       2.00000          -0.278816           -7.58697
     73       2.00000          -0.276388           -7.52090
     74       2.00000          -0.254788           -6.93312
     75       2.00000          -0.233788           -6.36171
     76       2.00000          -0.231468           -6.29858
     77       2.00000          -0.230874           -6.28240
     78       2.00000          -0.215664           -5.86852
     79       2.00000          -0.163558           -4.45065
     80       0.00000          -0.116686           -3.17518
     81       0.00000          -0.068613           -1.86706
     82       0.00000          -0.052455           -1.42738
     83       0.00000          -0.051012           -1.38810
     84       0.00000          -0.045268           -1.23181
     85       0.00000          -0.020511           -0.55812
     86       0.00000          -0.007171           -0.19513
     87       0.00000          -0.001935           -0.05265
     88       0.00000          -0.000303           -0.00825
     89       0.00000           0.001650            0.04490
     90       0.00000           0.011775            0.32041
     91       0.00000           0.013956            0.37976
     92       0.00000           0.025785            0.70165
     93       0.00000           0.030001            0.81636
     94       0.00000           0.041681            1.13419
     95       0.00000           0.044046            1.19855
     96       0.00000           0.052447            1.42716
     97       0.00000           0.062490            1.70045
     98       0.00000           0.067592            1.83928
     99       0.00000           0.071222            1.93804
    100       0.00000           0.071248            1.93875
    101       0.00000           0.074231            2.01994
    102       0.00000           0.086231            2.34646
    103       0.00000           0.092179            2.50831
    104       0.00000           0.101085            2.75066
    105       0.00000           0.107108            2.91456
    106       0.00000           0.108304            2.94709
    107       0.00000           0.117122            3.18707
    108       0.00000           0.117562            3.19904
    109       0.00000           0.124987            3.40107
    110       0.00000           0.126585            3.44455
    111       0.00000           0.132744            3.61215
    112       0.00000           0.140055            3.81110
    113       0.00000           0.147825            4.02251
    114       0.00000           0.148114            4.03038
    115       0.00000           0.152719            4.15569
    116       0.00000           0.154783            4.21186
    117       0.00000           0.164344            4.47202
    118       0.00000           0.165239            4.49637
    119       0.00000           0.166107            4.52001
    120       0.00000           0.171498            4.66671
    121       0.00000           0.173996            4.73468
    122       0.00000           0.176492            4.80259
    123       0.00000           0.179676            4.88924
    124       0.00000           0.182077            4.95456
    125       0.00000           0.183992            5.00668
    126       0.00000           0.190777            5.19130
    127       0.00000           0.192615            5.24133
    128       0.00000           0.194419            5.29042
    129       0.00000           0.195062            5.30792
    130       0.00000           0.209317            5.69580
    131       0.00000           0.210501            5.72802
    132       0.00000           0.212168            5.77339
    133       0.00000           0.215289            5.85831
    134       0.00000           0.218996            5.95918
    135       0.00000           0.222004            6.04104
    136       0.00000           0.222567            6.05635
    137       0.00000           0.223214            6.07397
    138       0.00000           0.229474            6.24430
    139       0.00000           0.232419            6.32444
    140       0.00000           0.236628            6.43898
    141       0.00000           0.245011            6.66708
    142       0.00000           0.247287            6.72901
    143       0.00000           0.247591            6.73729
    144       0.00000           0.256285            6.97386
    145       0.00000           0.256692            6.98495
    146       0.00000           0.259423            7.05926
    147       0.00000           0.262158            7.13369
    148       0.00000           0.264709            7.20311
    149       0.00000           0.267322            7.27420
    150       0.00000           0.273345            7.43809
    151       0.00000           0.277685            7.55620
    152       0.00000           0.278038            7.56580
    153       0.00000           0.292306            7.95404
    154       0.00000           0.292624            7.96271
    155       0.00000           0.302835            8.24057
    156       0.00000           0.307528            8.36826
    157       0.00000           0.309823            8.43072
    158       0.00000           0.311764            8.48354
    159       0.00000           0.314095            8.54697
    160       0.00000           0.316605            8.61527
    161       0.00000           0.317881            8.64998
    162       0.00000           0.325870            8.86737
    163       0.00000           0.325999            8.87088
    164       0.00000           0.329899            8.97700
    165       0.00000           0.332889            9.05837
    166       0.00000           0.336847            9.16607
    167       0.00000           0.341907            9.30375
    168       0.00000           0.362068            9.85238
    169       0.00000           0.364064            9.90668
    170       0.00000           0.369524           10.05527
    171       0.00000           0.371103           10.09823
    172       0.00000           0.371176           10.10020

  Highest occupied state (VBM) at     -4.45065095 eV
  | Occupation number:      2.00000000

  Lowest unoccupied state (CBM) at    -3.17518413 eV
  | Occupation number:      0.00000000

  Overall HOMO-LUMO gap:      1.27546682 eV.

  Total energy components:
  | Sum of eigenvalues            :        -525.43453619 Ha      -14297.80119380 eV
  | XC energy correction          :        -134.59269867 Ha       -3662.45367446 eV
  | XC potential correction       :         172.90033857 Ha        4704.85759306 eV
  | Free-atom electrostatic energy:        -402.26700178 Ha      -10946.24205716 eV
  | Hartree energy correction     :         -33.24017195 Ha        -904.51109968 eV
  | Entropy correction            :           0.00000000 Ha           0.00000000 eV
  | ---------------------------
  | Total energy                  :        -922.63407002 Ha      -25106.15043204 eV
  | Total energy, T -> 0          :        -922.63407002 Ha      -25106.15043204 eV  <-- do not rely on this value for anything but (periodic) metals
  | Electronic free energy        :        -922.63407002 Ha      -25106.15043204 eV

  Derived energy quantities:
  | Kinetic energy                :         920.04899280 Ha       25035.80690201 eV
  | Electrostatic energy          :       -1708.09036415 Ha      -46479.50365959 eV
  | Energy correction for multipole
  | error in Hartree potential    :          -0.11088228 Ha          -3.01726044 eV
  | Sum of eigenvalues per atom                           :        -376.25792615 eV
  | Total energy (T->0) per atom                          :        -660.68816926 eV  <-- do not rely on this value for anything but (periodic) metals
  | Electronic free energy per atom                       :        -660.68816926 eV
  End evaluation of scaled ZORA corrections.
  | Time for scaled ZORA corrections           :        3.725 s           3.733 s
------------------------------------------------------------

  Energy and forces in a compact form:
  | Total energy uncorrected      :         -0.251061504320353E+05 eV
  | Total energy corrected        :         -0.251061504320353E+05 eV  <-- do not rely on this value for anything but (periodic) metals
  | Electronic free energy        :         -0.251061504320353E+05 eV

  ------------------------------------ 
  Start decomposition of the XC Energy 
  ------------------------------------ 
  X and C from original XC functional choice 
  Hartree-Fock Energy :          0.000000000 Ha              0.000000000 eV
  X Energy            :       -129.292600576 Ha          -3518.230667283 eV
  C Energy            :         -5.300098096 Ha           -144.223007179 eV
  Total XC Energy     :       -134.592698672 Ha          -3662.453674462 eV
  ------------------------------------ 
  LDA X and C from self-consistent density 
  X Energy LDA        :       -117.099589777 Ha          -3186.441962216 eV
  C Energy LDA        :        -10.209909810 Ha           -277.825781556 eV
  ------------------------------------ 
  End decomposition of the XC Energy 
  ------------------------------------ 

------------------------------------------------------------

------------------------------------------------------------------------------
  Final output of selected total energy values:

  The following output summarizes some interesting total energy values
  at the end of a run (AFTER all relaxation, molecular dynamics, etc.).

  | Total energy of the DFT / Hartree-Fock s.c.f. calculation      :         -25106.150432035 eV
  | Final zero-broadening corrected energy (caution - metals only) :         -25106.150432035 eV
  | For reference only, the value of 1 Hartree used in FHI-aims is :             27.211384500 eV

  Before relying on these values, please be sure to understand exactly which
  total energy value is referred to by a given number. Different objects may
  all carry the same name 'total energy'. Definitions:

  Total energy of the DFT / Hartree-Fock s.c.f. calculation:
  | Note that this energy does not include ANY quantities calculated after the
  | s.c.f. cycle, in particular not ANY RPA, MP2, etc. many-body perturbation terms.
  | Scalar relativistic effects have been included in the 'scaled ZORA' approximation.

  Final zero-broadening corrected energy:
  | For metallic systems only, a broadening of the occupation numbers at the Fermi
  | level can be extrapolated back to zero broadening by an electron-gas inspired
  | formula. For all systems that are not real metals, this value can be
  | meaningless and should be avoided.

------------------------------------------------------------------------------
  Methods described in the following list of references were used in this FHI-aims run.
  If you publish the results, please make sure to cite these reference if they apply.
  FHI-aims is an academic code, and for our developers (often, Ph.D. students
  and postdocs), scientific credit in the community is essential.
  Thank you for helping us!

  For any use of FHI-aims, please cite:

    Volker Blum, Ralf Gehrke, Felix Hanke, Paula Havu, Ville Havu,
    Xinguo Ren, Karsten Reuter, and Matthias Scheffler
    'Ab initio molecular simulations with numeric atom-centered orbitals'
    Computer Physics Communications 180, 2175-2196 (2009)
    http://dx.doi.org/10.1016/j.cpc.2009.06.022


  The scalable eigensolver library ELPA was used in your run.
  ELPA is essential especially for large systems on hundreds or thousands of CPUs.
  For ELPA, please cite:

    Andreas Marek, Volker Blum, Rainer Johanni, Ville Havu, Bruno Lang,
    Thomas Auckenthaler, Alexander Heinecke, Hans-Joachim Bungartz, and Hermann Lederer,
    'The ELPA Library - Scalable Parallel Eigenvalue Solutions
    for Electronic Structure Theory and Computational Science'
    The Journal of Physics: Condensed Matter 26, 213201 (2014).
    http://dx.doi.org/10.1088/0953-8984/26/21/213201


  The ELSI infrastructure was used in your run to solve the Kohn-Sham electronic structure.
  Please check out http://elsi-interchange.org to learn more.
  If scalability is important for your project, please acknowledge ELSI by citing:

    V. W-z. Yu, F. Corsetti, A. Garcia, W. P. Huhn, M. Jacquelin, W. Jia,
    B. Lange, L. Lin, J. Lu, W. Mi, A. Seifitokaldani, A. Vazquez-Mayagoitia,
    C. Yang, H. Yang, and V. Blum
    'ELSI: A unified software interface for Kohn-Sham electronic structure solvers'
    Computer Physics Communications 222, 267-285 (2018).
    http://dx.doi.org/10.1016/j.cpc.2017.09.007


  For the real-space grid partitioning and parallelization used in this calculation, please cite:

    Ville Havu, Volker Blum, Paula Havu, and Matthias Scheffler,
    'Efficient O(N) integration for all-electron electronic structure calculation'
    'using numerically tabulated basis functions'
    Journal of Computational Physics 228, 8367-8379 (2009).
    http://dx.doi.org/10.1016/j.jcp.2009.08.008

  Of course, there are many other important community references, e.g., those cited in the
  above references. Our list is limited to references that describe implementations in the
  FHI-aims code. The reason is purely practical (length of this list) - please credit others as well.

------------------------------------------------------------
          Leaving FHI-aims.
          Date     :  20210620, Time     :  172438.770

          Computational steps:
          | Number of self-consistency cycles          :           16
          | Number of SCF (re)initializations          :            1

          Detailed time accounting                     :  max(cpu_time)    wall_clock(cpu1)
          | Total time                                 :       62.534 s          62.703 s
          | Preparation time                           :        0.187 s           0.191 s
          | Boundary condition initalization           :        0.000 s           0.003 s
          | Grid partitioning                          :        0.471 s           0.475 s
          | Preloading free-atom quantities on grid    :        0.013 s           0.017 s
          | Free-atom superposition energy             :        0.045 s           0.046 s
          | Total time for integrations                :       36.625 s          36.630 s
          | Total time for solution of K.-S. equations :        1.774 s           1.799 s
          | Total time for density update              :       13.136 s          13.094 s
          | Total time for mixing                      :        0.093 s           0.099 s
          | Total time for Hartree multipole update    :        0.121 s           0.127 s
          | Total time for Hartree multipole sum       :        5.598 s           5.603 s
          | Total time for total energy evaluation     :        0.007 s           0.033 s
          | Total time for scaled ZORA corrections     :        3.725 s           3.733 s

          Partial memory accounting:
          | Residual value for overall tracked memory usage across tasks :     0.000000 MB (should be 0.000000 MB)
          | Peak values for overall tracked memory usage (after allocating zora_vector2):
          |   Minimum:       21.898 MB (on task 24)
          |   Maximum:       26.865 MB (on task 18)
          |   Average:       24.167 MB
          | Largest tracked array allocation (hamiltonian_shell):
          |   Minimum:        5.848 MB (on task  1)
          |   Maximum:        5.848 MB (on task  1)
          |   Average:        5.848 MB
          Note:  These values currently only include a subset of arrays which are explicitly tracked.
          The "true" memory usage will be greater.

          Have a nice day.
------------------------------------------------------------
