  MPI-parallelism will be employed.
------------------------------------------------------------
          Invoking FHI-aims ...
          Version 180607
          Git rev. (modified): 6724847 Fix JSON memory corruption in scf_solver
          Compiled on 2018/06/27 at 16:00:31 on host coe.psc.edu.

          When using FHI-aims, please cite the following reference:

          Volker Blum, Ralf Gehrke, Felix Hanke, Paula Havu,
          Ville Havu, Xinguo Ren, Karsten Reuter, and Matthias Scheffler,
          'Ab Initio Molecular Simulations with Numeric Atom-Centered Orbitals',
          Computer Physics Communications 180, 2175-2196 (2009)

          For any questions about FHI-aims, please visit the aimsclub website
          with its forums and wiki. Contributions to both the forums and the
          wiki are warmly encouraged - they are for you, and everyone is welcome there.

------------------------------------------------------------



  Date     :  20210620, Time     :  174751.038
  Time zero on CPU 1             :   0.215828000000000E+00  s.
  Internal wall clock time zero  :           393443271.038  s.

  FHI-aims created a unique identifier for this run for later identification
  aims_uuid : 67A326F8-86E3-4294-AE17-41ABB5701726

  Using       56 parallel tasks.
  Task        0 on host d001 reporting.
  Task        1 on host d001 reporting.
  Task        2 on host d001 reporting.
  Task        3 on host d001 reporting.
  Task        4 on host d001 reporting.
  Task        5 on host d001 reporting.
  Task        6 on host d001 reporting.
  Task        7 on host d001 reporting.
  Task        8 on host d001 reporting.
  Task        9 on host d001 reporting.
  Task       10 on host d001 reporting.
  Task       11 on host d001 reporting.
  Task       12 on host d001 reporting.
  Task       13 on host d001 reporting.
  Task       14 on host d001 reporting.
  Task       15 on host d001 reporting.
  Task       16 on host d001 reporting.
  Task       17 on host d001 reporting.
  Task       18 on host d001 reporting.
  Task       19 on host d001 reporting.
  Task       20 on host d001 reporting.
  Task       21 on host d001 reporting.
  Task       22 on host d001 reporting.
  Task       23 on host d001 reporting.
  Task       24 on host d001 reporting.
  Task       25 on host d001 reporting.
  Task       26 on host d001 reporting.
  Task       27 on host d001 reporting.
  Task       28 on host d001 reporting.
  Task       29 on host d001 reporting.
  Task       30 on host d001 reporting.
  Task       31 on host d001 reporting.
  Task       32 on host d001 reporting.
  Task       33 on host d001 reporting.
  Task       34 on host d001 reporting.
  Task       35 on host d001 reporting.
  Task       36 on host d001 reporting.
  Task       37 on host d001 reporting.
  Task       38 on host d001 reporting.
  Task       39 on host d001 reporting.
  Task       40 on host d001 reporting.
  Task       41 on host d001 reporting.
  Task       42 on host d001 reporting.
  Task       43 on host d001 reporting.
  Task       44 on host d001 reporting.
  Task       45 on host d001 reporting.
  Task       46 on host d001 reporting.
  Task       47 on host d001 reporting.
  Task       48 on host d001 reporting.
  Task       49 on host d001 reporting.
  Task       50 on host d001 reporting.
  Task       51 on host d001 reporting.
  Task       52 on host d001 reporting.
  Task       53 on host d001 reporting.
  Task       54 on host d001 reporting.
  Task       55 on host d001 reporting.

  Performing system and environment tests:
  *** Environment variable OMP_NUM_THREADS is not set
  *** For performance reasons you might want to set it to 1
  | Stacksize not measured: no C compiler
  | Checking for scalapack...
  | Testing pdtran()...
  | All pdtran() tests passed.

  Obtaining array dimensions for all initial allocations:
  
  -----------------------------------------------------------------------
  Parsing control.in (first pass over file, find array dimensions only).
  The contents of control.in will be repeated verbatim below
  unless switched off by setting 'verbatim_writeout .false.' .
  in the first line of control.in .
  -----------------------------------------------------------------------
  
  #===============================================================================
  # FHI-aims file: ./Runs/es/control.in
  # Created using the Atomic Simulation Environment (ASE)
  # Mon Jan 13 16:04:38 2020
  #===============================================================================
  xc                                 pbe
  relativistic                       zora scalar 1e-12
  occupation_type                    gaussian 0.0001
  load_balancing                     .true.
  KS_method                          scalapack_fast
  mixer                              pulay
  n_max_pulay                        5
  charge_mix_param                   0.4
  sc_accuracy_etot                   1e-6
  sc_accuracy_eev                    1e-4
  sc_accuracy_rho                    1e-6
  sc_iter_limit                      100
  prodbas_threshold                  1e-4
  basis_threshold                    1e-5
  override_illconditioning           .true.
  use_logsbt                         .true.
  spin                               none
  charge                             0
  #===============================================================================
  
  ################################################################################
  #
  #  FHI-aims code project
  # Volker Blum, Fritz Haber Institute Berlin, 2009
  #
  #  Suggested "tight" defaults for H atom (to be pasted into control.in file)
  #
  ################################################################################
    species        H
  #     global species definitions
      nucleus             1
      mass                1.00794
  #
      l_hartree           6
  #
      cut_pot             4.0  2.0  1.0
      basis_dep_cutoff    1e-4
  #
      radial_base         24 7.0
      radial_multiplier   2
      angular_grids       specified
        division   0.1930   50
        division   0.3175  110
        division   0.4293  194
        division   0.5066  302
        division   0.5626  434
  #      division   0.5922  590
  #      division   0.6227  974
  #      division   0.6868 1202
  #      outer_grid  770
        outer_grid  434
  ################################################################################
  #
  #  Definition of "minimal" basis
  #
  ################################################################################
  #     valence basis states
      valence      1  s   1.
  #     ion occupancy
      ion_occ      1  s   0.5
  ################################################################################
  #
  #  Suggested additional basis functions. For production calculations,
  #  uncomment them one after another (the most important basis functions are
  #  listed first).
  #
  #  Basis constructed for dimers: 0.5 A, 0.7 A, 1.0 A, 1.5 A, 2.5 A
  #
  ################################################################################
  #  "First tier" - improvements: -1014.90 meV to -62.69 meV
       hydro 2 s 2.1
       hydro 2 p 3.5
  #  "Second tier" - improvements: -12.89 meV to -1.83 meV
       hydro 1 s 0.85
       hydro 2 p 3.7
       hydro 2 s 1.2
       hydro 3 d 7
  #  "Third tier" - improvements: -0.25 meV to -0.12 meV
  #     hydro 4 f 11.2
  #     hydro 3 p 4.8
  #     hydro 4 d 9
  #     hydro 3 s 3.2
  ################################################################################
  #
  # For methods that use the localized form of the "resolution of identity" for
  # the two-electron Coulomb operator (RI_method LVL), particularly Hartree-Fock and
  # hybrid density functional calculations, the highest accuracy can be obtained by
  # uncommenting the line beginning with "for_aux"  below, thus adding an extra g radial
  # function to the construction of the product basis set for the expansion.
  # See Ref. New J. Phys. 17, 093020 (2015) for more information, particularly Figs. 1 and 6.
  #
  ################################################################################
  #
  # for_aux hydro 5 g 6.0
  ################################################################################
  #
  #  FHI-aims code project
  # Volker Blum, Fritz Haber Institute Berlin, 2009
  #
  #  Suggested "tight" defaults for C atom (to be pasted into control.in file)
  #
  ################################################################################
    species        C
  #     global species definitions
      nucleus             6
      mass                12.0107
  #
      l_hartree           6
  #
      cut_pot             4.0  2.0  1.0
      basis_dep_cutoff    1e-4
  #
      radial_base         34 7.0
      radial_multiplier   2
      angular_grids specified
        division   0.2187   50
        division   0.4416  110
        division   0.6335  194
        division   0.7727  302
        division   0.8772  434
  #      division   0.9334  590
  #      division   0.9924  770
  #      division   1.0230  974
  #      division   1.5020 1202
  #     outer_grid  974
        outer_grid  434
  ################################################################################
  #
  #  Definition of "minimal" basis
  #
  ################################################################################
  #     valence basis states
      valence      2  s   2.
      valence      2  p   2.
  #     ion occupancy
      ion_occ      2  s   1.
      ion_occ      2  p   1.
  ################################################################################
  #
  #  Suggested additional basis functions. For production calculations,
  #  uncomment them one after another (the most important basis functions are
  #  listed first).
  #
  #  Constructed for dimers: 1.0 A, 1.25 A, 1.5 A, 2.0 A, 3.0 A
  #
  ################################################################################
  #  "First tier" - improvements: -1214.57 meV to -155.61 meV
       hydro 2 p 1.7
       hydro 3 d 6
       hydro 2 s 4.9
  #  "Second tier" - improvements: -67.75 meV to -5.23 meV
       hydro 4 f 9.8
       hydro 3 p 5.2
       hydro 3 s 4.3
       hydro 5 g 14.4
       hydro 3 d 6.2
  #  "Third tier" - improvements: -2.43 meV to -0.60 meV
  #     hydro 2 p 5.6
  #     hydro 2 s 1.4
  #     hydro 3 d 4.9
  #     hydro 4 f 11.2
  #  "Fourth tier" - improvements: -0.39 meV to -0.18 meV
  #     hydro 2 p 2.1
  #     hydro 5 g 16.4
  #     hydro 4 d 13.2
  #     hydro 3 s 13.6
  #     hydro 4 f 17.6
  #  Further basis functions - improvements: -0.08 meV and below
  #     hydro 3 s 2
  #     hydro 3 p 6
  #     hydro 4 d 20
  ################################################################################
  #
  # For methods that use the localized form of the "resolution of identity" for
  # the two-electron Coulomb operator (RI_method LVL), particularly Hartree-Fock and
  # hybrid density functional calculations, the highest accuracy can be obtained by
  # uncommenting the line beginning with "for_aux"  below, thus adding an extra g radial
  # function to the construction of the product basis set for the expansion.
  # See Ref. New J. Phys. 17, 093020 (2015) for more information, particularly Figs. 1 and 6.
  #
  ################################################################################
  #
  # for_aux hydro 5 g 6.0
  
  -----------------------------------------------------------------------
  Completed first pass over input file control.in .
  -----------------------------------------------------------------------
  
  
  -----------------------------------------------------------------------
  Parsing geometry.in (first pass over file, find array dimensions only).
  The contents of geometry.in will be repeated verbatim below
  unless switched off by setting 'verbatim_writeout .false.' .
  in the first line of geometry.in .
  -----------------------------------------------------------------------
  
  #=======================================================
  # FHI-aims file: geometry.in
  # Created using the Atomic Simulation Environment (ASE)
  # Sun Jun 20 15:47:02 2021
  #=======================================================
  atom 9.7952580000000005 26.1336919999999999 52.9087600000000009 C
  atom 8.9900579999999994 27.0105180000000011 52.1593999999999980 C
  atom 10.2977030000000003 25.3063749999999992 52.4169430000000034 H
  atom 9.9844799999999996 26.3582450000000001 54.2299999999999969 C
  atom 8.6599260000000005 26.8715089999999996 50.7592799999999968 C
  atom 8.4545999999999992 28.1867480000000015 52.7904399999999967 C
  atom 9.4248659999999997 27.4596240000000016 54.8807600000000022 C
  atom 10.6355649999999997 25.6919639999999987 54.7945840000000004 H
  atom 8.1405720000000006 27.9515020000000014 50.0296400000000006 C
  atom 8.7807060000000003 25.6097350000000006 50.0099200000000010 C
  atom 7.7822579999999997 29.1811970000000009 52.0608000000000004 C
  atom 8.6961600000000008 28.3471429999999991 54.1905599999999978 C
  atom 9.6048679999999997 27.6059039999999989 55.9470200000000020 H
  atom 7.6816079999999998 29.1277320000000017 50.7001199999999983 C
  atom 8.1405720000000006 27.9515020000000014 48.5703600000000009 C
  atom 8.7323939999999993 24.3586540000000014 50.6803999999999988 C
  atom 8.7807060000000003 25.6097350000000006 48.5900800000000004 C
  atom 7.3823960000000000 30.0368509999999986 52.6048749999999998 H
  atom 8.2644920000000006 29.2238620000000004 54.6752779999999987 H
  atom 7.0978380000000003 30.1970320000000001 49.9704800000000020 C
  atom 7.6816079999999998 29.1277320000000017 47.8998800000000031 C
  atom 8.6599260000000005 26.8715089999999996 47.8407199999999975 C
  atom 8.7001860000000004 23.1610380000000013 49.9902000000000015 C
  atom 8.6488139999999998 24.3389789999999984 51.7622390000000010 H
  atom 8.7323939999999993 24.3586540000000014 47.9196000000000026 C
  atom 6.6631910000000003 31.0250979999999998 50.5319080000000014 H
  atom 7.0978380000000003 30.1970320000000001 48.6295199999999994 C
  atom 7.7822579999999997 29.1811970000000009 46.5392000000000010 C
  atom 8.9900579999999994 27.0105180000000011 46.4406000000000034 C
  atom 8.6259060000000005 22.2223000000000006 50.5403880000000001 H
  atom 8.7001860000000004 23.1610380000000013 48.6097999999999999 C
  atom 8.6488139999999998 24.3389789999999984 46.8377610000000004 H
  atom 6.6631910000000003 31.0250979999999998 48.0680920000000000 H
  atom 7.3823960000000000 30.0368509999999986 45.9951250000000016 H
  atom 8.4545999999999992 28.1867480000000015 45.8095599999999976 C
  atom 9.7952580000000005 26.1336919999999999 45.6912400000000005 C
  atom 8.6259060000000005 22.2223000000000006 48.0596120000000013 H
  atom 8.6961600000000008 28.3471429999999991 44.4094399999999965 C
  atom 10.2977030000000003 25.3063749999999992 46.1830569999999980 H
  atom 9.9844799999999996 26.3582450000000001 44.3699999999999974 C
  atom 8.2644920000000006 29.2238620000000004 43.9247220000000027 H
  atom 9.4248659999999997 27.4596240000000016 43.7192399999999992 C
  atom 10.6355649999999997 25.6919639999999987 43.8054160000000010 H
  atom 9.6048679999999997 27.6059039999999989 42.6529799999999994 H
  
  -----------------------------------------------------------------------
  Completed first pass over input file geometry.in .
  -----------------------------------------------------------------------
  

  Basic array size parameters:
  | Number of species                 :        2
  | Number of atoms                   :       44
  | Max. basis fn. angular momentum   :        4
  | Max. atomic/ionic basis occupied n:        2
  | Max. number of basis fn. types    :        2
  | Max. radial fns per species/type  :        8
  | Max. logarithmic grid size        :     1277
  | Max. radial integration grid size :       69
  | Max. angular integration grid size:      434
  | Max. angular grid division number :        8
  | Radial grid for Hartree potential :     1277
  | Number of spin channels           :        1

------------------------------------------------------------
          Reading file control.in.
------------------------------------------------------------
  XC: Using PBE gradient-corrected functionals.
  Scalar relativistic treatment of kinetic energy: ZORA.
  Threshold value for ZORA:   0.100000E-11
  Occupation type: Gaussian broadening, width =   0.100000E-03 eV.
  Since 'load_balancing .true.' is present in control.in, automatically turning on 'use_local_index .true.'.
  Using load balancing for integrations.
  Kohn-Sham electronic structure solved by the ELSI library.
  Using pulay charge density mixing.
  Pulay mixing - number of memorized iterations:    5
  Charge density mixing - mixing parameter:     0.4000
  Convergence accuracy of total energy:  0.1000E-05
  Convergence accuracy of sum of eigenvalues:  0.1000E-03
  Convergence accuracy of self-consistent charge density:  0.1000E-05
  Maximum number of s.-c. iterations  :   100
  * Ignoring prodbas_threshold
  Threshold for basis singularities:  0.1000E-04
  override_illconditioning: Explicitly overriding any built-in checks for an ill-conditioned overlap matrix.
  *** WARNING: If you use this flag, you should really know what you are doing.
  *** DO NOT keep this flag set by default in all your control.in files.
  Using 1D integrations for auxiliary 2-center integrals.
  Spin treatment: No spin polarisation.
  Charge =   0.000000E+00: Neutral system requested explicitly.
 
  Reading configuration options for species H                   .
  | Found nuclear charge :   1.0000
  | Found atomic mass :    1.00794000000000      amu
  | Found l_max for Hartree potential  :   6
  | Found cutoff potl. onset [A], width [A], scale factor :    4.00000    2.00000    1.00000
  | Threshold for basis-dependent cutoff potential is   0.100000E-03
  | Found data for basic radial integration grid :    24 points, outermost radius =    7.000 A
  | Found multiplier for basic radial grid :   2
  | Found angular grid specification: user-specified.
  | Specified grid contains     6 separate shells.
  | Check grid settings after all constraints further below.
  | Found free-atom valence shell :  1 s   1.000
  | No ionic wave fns used. Skipping ion_occ.
  | Found hydrogenic basis function :  2 s   2.100
  | Found hydrogenic basis function :  2 p   3.500
  | Found hydrogenic basis function :  1 s   0.850
  | Found hydrogenic basis function :  2 p   3.700
  | Found hydrogenic basis function :  2 s   1.200
  | Found hydrogenic basis function :  3 d   7.000
  Species H                   : Missing cutoff potential type.
  Defaulting to exp(1/x)/(1-x)^2 type cutoff potential.
  Species H : No 'logarithmic' tag. Using default grid for free atom:
  | Default logarithmic grid data [bohr] : 0.1000E-03 0.1000E+03 0.1012E+01
  Species H : On-site basis accuracy parameter (for Gram-Schmidt orthonormalisation) not specified.
  Using default value basis_acc =  0.1000000E-03.
  Species H                   : Using default innermost maximum threshold i_radial=  2 for radial functions.
  Species H                   : Default cutoff onset for free atom density etc. : 0.40000000E+01 AA.
  Species H                   : Basic radial grid will be enhanced according to radial_multiplier =   2, to contain    49 grid points.
 
  Reading configuration options for species C                   .
  | Found nuclear charge :   6.0000
  | Found atomic mass :    12.0107000000000      amu
  | Found l_max for Hartree potential  :   6
  | Found cutoff potl. onset [A], width [A], scale factor :    4.00000    2.00000    1.00000
  | Threshold for basis-dependent cutoff potential is   0.100000E-03
  | Found data for basic radial integration grid :    34 points, outermost radius =    7.000 A
  | Found multiplier for basic radial grid :   2
  | Found angular grid specification: user-specified.
  | Specified grid contains     6 separate shells.
  | Check grid settings after all constraints further below.
  | Found free-atom valence shell :  2 s   2.000
  | Found free-atom valence shell :  2 p   2.000
  | No ionic wave fns used. Skipping ion_occ.
  | No ionic wave fns used. Skipping ion_occ.
  | Found hydrogenic basis function :  2 p   1.700
  | Found hydrogenic basis function :  3 d   6.000
  | Found hydrogenic basis function :  2 s   4.900
  | Found hydrogenic basis function :  4 f   9.800
  | Found hydrogenic basis function :  3 p   5.200
  | Found hydrogenic basis function :  3 s   4.300
  | Found hydrogenic basis function :  5 g  14.400
  | Found hydrogenic basis function :  3 d   6.200
  Species C                   : Missing cutoff potential type.
  Defaulting to exp(1/x)/(1-x)^2 type cutoff potential.
  Species C : No 'logarithmic' tag. Using default grid for free atom:
  | Default logarithmic grid data [bohr] : 0.1000E-03 0.1000E+03 0.1012E+01
  Species C : On-site basis accuracy parameter (for Gram-Schmidt orthonormalisation) not specified.
  Using default value basis_acc =  0.1000000E-03.
  Species C                   : Using default innermost maximum threshold i_radial=  2 for radial functions.
  Species C                   : Default cutoff onset for free atom density etc. : 0.40000000E+01 AA.
  Species C                   : Basic radial grid will be enhanced according to radial_multiplier =   2, to contain    69 grid points.
 
  Finished reading input file 'control.in'. Consistency checks are next.
 
  MPI_IN_PLACE appears to work with this MPI implementation.
  | Keeping use_mpi_in_place .true. (see manual).
  Target number of points in a grid batch is not set. Defaulting to  100
  Method for grid partitioning is not set. Defaulting to parallel hash+maxmin partitioning.
  Batch size limit is not set. Defaulting to    200
  By default, will store active basis functions for each batch.
  If in need of memory, prune_basis_once .false. can be used to disable this option.
  communication_type for Hartree potential was not specified.
  Defaulting to calc_hartree .
  Pulay mixer: Number of initial linear mixing iterations not set.
  Defaulting to    0 iterations.
  Work space size for distributed Hartree potential not set.
  Defaulting to   0.200000E+03 MB.
  Algorithm-dependent basis array size parameters:
  | n_max_pulay                         :        5
  Presetting      1001 iterations before the initial mixing cycle
  is restarted anyway using the sc_init_iter criterion / keyword.
  Presetting a factor      1.000 between actual scf density residual
  and density convergence criterion sc_accuracy_rho below which sc_init_iter
  takes no effect.
  Calculation of forces was not defined in control.in. No forces will be calculated.
  Geometry relaxation not requested: no relaxation will be performed.
  No accuracy limit for integral partition fn. given. Defaulting to  0.1000E-14.
  No threshold value for u(r) in integrations given. Defaulting to  0.1000E-05.
  No accuracy for occupation numbers given. Defaulting to  0.1000E-12.
  No threshold value for occupation numbers given. Defaulting to  0.0000E+00.
  No accuracy for fermi level given. Defaulting to  0.1000E-19.
  Maximum # of iterations to find E_F not set. Defaulting to  200.
  Will not use alltoall communication since running on < 1024 CPUs.
  partition_type (choice of integration weights) for integrals was not specified.
  | Using a version of the partition function of Stratmann and coworkers ('stratmann_sparse').
  | At each grid point, the set of atoms used to build the partition table is smoothly restricted to
  | only those atoms whose free-atom density would be non-zero at that grid point.
  Partitioning for Hartree potential was not defined. Using partition_type for integrals.
  | Adjusted default value of keyword multip_moments_threshold to:       0.10000000E-11
  | This value may affect high angular momentum components of the Hartree potential in periodic systems.
  No q(lm)/r^(l+1) cutoff set for long-range Hartree potential.
  | Using default value of  0.100000E-09 .
  | Verify using the multipole_threshold keyword.
  Defaulting to new monopole extrapolation.
  Density update method: automatic selection selected.
 * Warning: use_local_index and/or load_balancing needs packed_matrix_format = index
 * Changing the default setting to packed_matrix_format = index
------------------------------------------------------------


------------------------------------------------------------
          Reading geometry description geometry.in.
------------------------------------------------------------
  Input structure read successfully.
  The structure contains       44 atoms,  and a total of        184.000 electrons.

  Input geometry:
  | No unit cell requested.
  | Atomic structure:
  |       Atom                x [A]            y [A]            z [A]
  |    1: Species C             9.79525800       26.13369200       52.90876000
  |    2: Species C             8.99005800       27.01051800       52.15940000
  |    3: Species H            10.29770300       25.30637500       52.41694300
  |    4: Species C             9.98448000       26.35824500       54.23000000
  |    5: Species C             8.65992600       26.87150900       50.75928000
  |    6: Species C             8.45460000       28.18674800       52.79044000
  |    7: Species C             9.42486600       27.45962400       54.88076000
  |    8: Species H            10.63556500       25.69196400       54.79458400
  |    9: Species C             8.14057200       27.95150200       50.02964000
  |   10: Species C             8.78070600       25.60973500       50.00992000
  |   11: Species C             7.78225800       29.18119700       52.06080000
  |   12: Species C             8.69616000       28.34714300       54.19056000
  |   13: Species H             9.60486800       27.60590400       55.94702000
  |   14: Species C             7.68160800       29.12773200       50.70012000
  |   15: Species C             8.14057200       27.95150200       48.57036000
  |   16: Species C             8.73239400       24.35865400       50.68040000
  |   17: Species C             8.78070600       25.60973500       48.59008000
  |   18: Species H             7.38239600       30.03685100       52.60487500
  |   19: Species H             8.26449200       29.22386200       54.67527800
  |   20: Species C             7.09783800       30.19703200       49.97048000
  |   21: Species C             7.68160800       29.12773200       47.89988000
  |   22: Species C             8.65992600       26.87150900       47.84072000
  |   23: Species C             8.70018600       23.16103800       49.99020000
  |   24: Species H             8.64881400       24.33897900       51.76223900
  |   25: Species C             8.73239400       24.35865400       47.91960000
  |   26: Species H             6.66319100       31.02509800       50.53190800
  |   27: Species C             7.09783800       30.19703200       48.62952000
  |   28: Species C             7.78225800       29.18119700       46.53920000
  |   29: Species C             8.99005800       27.01051800       46.44060000
  |   30: Species H             8.62590600       22.22230000       50.54038800
  |   31: Species C             8.70018600       23.16103800       48.60980000
  |   32: Species H             8.64881400       24.33897900       46.83776100
  |   33: Species H             6.66319100       31.02509800       48.06809200
  |   34: Species H             7.38239600       30.03685100       45.99512500
  |   35: Species C             8.45460000       28.18674800       45.80956000
  |   36: Species C             9.79525800       26.13369200       45.69124000
  |   37: Species H             8.62590600       22.22230000       48.05961200
  |   38: Species C             8.69616000       28.34714300       44.40944000
  |   39: Species H            10.29770300       25.30637500       46.18305700
  |   40: Species C             9.98448000       26.35824500       44.37000000
  |   41: Species H             8.26449200       29.22386200       43.92472200
  |   42: Species C             9.42486600       27.45962400       43.71924000
  |   43: Species H            10.63556500       25.69196400       43.80541600
  |   44: Species H             9.60486800       27.60590400       42.65298000
  |

  | The smallest distance between any two atoms is         1.08524115 AA.
  |
  | The first atom of this pair is atom number                     16 .
  | The second atom of this pair is atom number                    24 .

  Number of empty states per atom not set in control.in - providing a guess from actual geometry.
  | Total number of empty states used during s.c.f. cycle:      108
  If you use a very high smearing, use empty_states (per atom!) in control.in to increase this value.

  Structure-dependent array size parameters: 
  | Maximum number of distinct radial functions  :       18
  | Maximum number of basis functions            :     1332
  | Number of Kohn-Sham states (occupied + empty):      200
------------------------------------------------------------

------------------------------------------------------------
          Preparing all fixed parts of the calculation.
------------------------------------------------------------
  Determining machine precision:
    2.225073858507201E-308
  Setting up grids for atomic and cluster calculations.

  Creating wave function, potential, and density for free atoms.

  Species: H

  List of occupied orbitals and eigenvalues:
    n    l              occ      energy [Ha]    energy [eV]
    1    0           1.0000        -0.238386        -6.4868


  Species: C

  List of occupied orbitals and eigenvalues:
    n    l              occ      energy [Ha]    energy [eV]
    1    0           2.0000       -10.049212      -273.4530
    2    0           2.0000        -0.504761       -13.7352
    2    1           2.0000        -0.193631        -5.2690

  Creating fixed part of basis set: Ionic, confined, hydrogenic.
 
  H                    hydrogenic:
 
  List of hydrogenic basis orbitals: 
    n    l      effective z      eigenvalue [eV]  inner max. [A]     outer max. [A]     outer radius [A]   
    2    0         2.100000       -14.9965           0.193243           1.317208           5.373006
    2    1         3.500000       -41.6672           0.602369           0.602369           4.056063
    1    0         0.850000        -9.8292           0.624871           0.624871           5.373006
    2    1         3.700000       -46.5653           0.573622           0.573622           3.910002
    2    0         1.200000        -4.5995           0.334980           2.228188           5.505995
    3    2         7.000000       -74.0753           0.680699           0.680699           3.769201
 
 
  C                    hydrogenic:
 
  List of hydrogenic basis orbitals: 
    n    l      effective z      eigenvalue [eV]  inner max. [A]     outer max. [A]     outer radius [A]   
    2    1         1.700000        -9.8152           1.245706           1.245706           5.401630
    3    2         6.000000       -54.4226           0.792453           0.792453           4.178599
    2    0         4.900000       -81.6681           0.082559           0.562749           3.353238
    4    3         9.800000       -81.6681           0.863254           0.863254           4.028125
    3    1         5.200000       -40.8774           0.305389           1.215618           4.898362
    3    0         4.300000       -27.9508           0.091041           1.610311           5.401630
    5    4        14.400000      -112.8510           0.917666           0.917666           3.883070
    3    2         6.200000       -58.1113           0.763917           0.763917           4.077671
 

  Adding cutoff potential to free-atom effective potential.
  Creating atomic-like basis functions for current effective potential.

  Species H                   :

  List of atomic basis orbitals and eigenvalues:
    n    l      energy [Ha]    energy [eV]    outer radius [A]
    1    0        -0.238386        -6.4868       5.373006


  Species C                   :

  List of atomic basis orbitals and eigenvalues:
    n    l      energy [Ha]    energy [eV]    outer radius [A]
    1    0       -10.049212      -273.4530       1.934409
    2    0        -0.504761       -13.7352       5.271162
    2    1        -0.193631        -5.2690       5.401630

  Assembling full basis from fixed parts.
  | Species H :   atomic orbital   1 s accepted.
  | Species H :    hydro orbital   2 s accepted.
  | Species H :    hydro orbital   1 s accepted.
  | Species H :    hydro orbital   2 s accepted.
  | Species H :    hydro orbital   2 p accepted.
  | Species H :    hydro orbital   2 p accepted.
  | Species H :    hydro orbital   3 d accepted.
  | Species C :   atomic orbital   1 s accepted.
  | Species C :    hydro orbital   2 s accepted.
  | Species C :   atomic orbital   2 s accepted.
  | Species C :    hydro orbital   3 s accepted.
  | Species C :    hydro orbital   3 p accepted.
  | Species C :   atomic orbital   2 p accepted.
  | Species C :    hydro orbital   2 p accepted.
  | Species C :    hydro orbital   3 d accepted.
  | Species C :    hydro orbital   3 d accepted.
  | Species C :    hydro orbital   4 f accepted.
  | Species C :    hydro orbital   5 g accepted.
 
  Basis size parameters after reduction:
  | Total number of radial functions:       18
  | Total number of basis functions :     1332
 
  Per-task memory consumption for arrays in subroutine allocate_ext:
  |           4.444616MB.
  Testing on-site integration grid accuracy.
  |  Species  Function  <phi|h_atom|phi> (log., in eV)  <phi|h_atom|phi> (rad., in eV)
           1        1                 -6.4870767962                 -6.4871688290
           1        2                 13.5032046589                 13.5028982997
           1        3                 32.8195184817                 32.8119941656
           1        4                 33.8513856511                 33.7670005767 ***
           1        5                 28.8544614965                 28.8544615203
           1        6                 59.6326952547                 59.6327656460
           1        7                 60.2719308513                 60.2719305949
           2        8               -273.4529726040               -273.4529710464
           2        9                -10.7721037319                -10.7721022101
           2       10                 17.6044132601                 17.6044162063
           2       11                 53.7706460658                 53.7706913770
           2       12                 15.0973290362                 15.0973256030
           2       13                  3.8545134692                  3.8545724687
           2       14                 12.1156992592                 12.1182024431
           2       15                 29.4352039302                 29.4352041816
           2       16                 54.8741144708                 54.8740268729
           2       17                 59.3556032049                 59.3556031382
           2       18                 93.4551837154                 93.4551838009
 * Note: Onsite integrals marked "***" above are less accurate than
 * onsite_accuracy_threshold =    0.03000 eV. Usually, this is harmless.
 * When in doubt, tighten the "radial" and/or "radial_multiplier" flags to check.

  Preparing densities etc. for the partition functions (integrals / Hartree potential).

  Preparations completed.
  max(cpu_time)          :      0.184 s.
  Wall clock time (cpu1) :      0.176 s.
------------------------------------------------------------

------------------------------------------------------------
          Begin self-consistency loop: Initialization.

          Date     :  20210620, Time     :  174751.406
------------------------------------------------------------

  Initializing index lists of integration centers etc. from given atomic structure:
  | Number of centers in hartree potential         :        44
  | Number of centers in hartree multipole         :        44
  | Number of centers in electron density summation:        44
  | Number of centers in basis integrals           :        44
  | Number of centers in integrals                 :        44
  | Number of centers in hamiltonian               :        44
  * Using 56 tasks for Scalapack Eigenvalue solver.
  Detailed listing of tasks and assigned k-points:
  (for non-periodic systems, the "k-point" denotes an internal label only)
   Task     0 k-point     1 on d001
   Task     1 k-point     1 on d001
   Task     2 k-point     1 on d001
   Task     3 k-point     1 on d001
   Task     4 k-point     1 on d001
   Task     5 k-point     1 on d001
   Task     6 k-point     1 on d001
   Task     7 k-point     1 on d001
   Task     8 k-point     1 on d001
   Task     9 k-point     1 on d001
   Task    10 k-point     1 on d001
   Task    11 k-point     1 on d001
   Task    12 k-point     1 on d001
   Task    13 k-point     1 on d001
   Task    14 k-point     1 on d001
   Task    15 k-point     1 on d001
   Task    16 k-point     1 on d001
   Task    17 k-point     1 on d001
   Task    18 k-point     1 on d001
   Task    19 k-point     1 on d001
   Task    20 k-point     1 on d001
   Task    21 k-point     1 on d001
   Task    22 k-point     1 on d001
   Task    23 k-point     1 on d001
   Task    24 k-point     1 on d001
   Task    25 k-point     1 on d001
   Task    26 k-point     1 on d001
   Task    27 k-point     1 on d001
   Task    28 k-point     1 on d001
   Task    29 k-point     1 on d001
   Task    30 k-point     1 on d001
   Task    31 k-point     1 on d001
   Task    32 k-point     1 on d001
   Task    33 k-point     1 on d001
   Task    34 k-point     1 on d001
   Task    35 k-point     1 on d001
   Task    36 k-point     1 on d001
   Task    37 k-point     1 on d001
   Task    38 k-point     1 on d001
   Task    39 k-point     1 on d001
   Task    40 k-point     1 on d001
   Task    41 k-point     1 on d001
   Task    42 k-point     1 on d001
   Task    43 k-point     1 on d001
   Task    44 k-point     1 on d001
   Task    45 k-point     1 on d001
   Task    46 k-point     1 on d001
   Task    47 k-point     1 on d001
   Task    48 k-point     1 on d001
   Task    49 k-point     1 on d001
   Task    50 k-point     1 on d001
   Task    51 k-point     1 on d001
   Task    52 k-point     1 on d001
   Task    53 k-point     1 on d001
   Task    54 k-point     1 on d001
   Task    55 k-point     1 on d001
  Tasks:    56 split into      8 X      7 BLACS grid
  Calculating block size based on n_basis =         1332 max_nprow =            8 max_npcol =            7
  ScaLAPACK block size set to:           16
  Allocating        0.270 MB for ovlp
  Allocating        0.270 MB for ham
  Allocating        0.270 MB for eigenvec
  Required Scalapack workspace - INTEGER:            1 REAL:             1
  Partitioning the integration grid into batches with parallel hashing+maxmin method.
  | Number of batches:     6793
  | Maximal batch size:     200
  | Minimal batch size:       1
  | Average batch size:     108.551
  | Standard deviation of batch sizes:      25.275

  Integration load balanced across     56 MPI tasks.
  Work distribution over tasks is as follows:
  Task      0 has      13283 integration points.
  Task      1 has      13258 integration points.
  Task      2 has      13148 integration points.
  Task      3 has      13280 integration points.
  Task      4 has      13067 integration points.
  Task      5 has      13135 integration points.
  Task      6 has      13113 integration points.
  Task      7 has      13185 integration points.
  Task      8 has      13220 integration points.
  Task      9 has      13097 integration points.
  Task     10 has      13210 integration points.
  Task     11 has      13119 integration points.
  Task     12 has      13254 integration points.
  Task     13 has      13043 integration points.
  Task     14 has      13269 integration points.
  Task     15 has      13188 integration points.
  Task     16 has      13109 integration points.
  Task     17 has      13280 integration points.
  Task     18 has      13116 integration points.
  Task     19 has      13168 integration points.
  Task     20 has      13084 integration points.
  Task     21 has      13214 integration points.
  Task     22 has      13287 integration points.
  Task     23 has      13093 integration points.
  Task     24 has      13266 integration points.
  Task     25 has      13127 integration points.
  Task     26 has      13098 integration points.
  Task     27 has      13081 integration points.
  Task     28 has      13292 integration points.
  Task     29 has      13158 integration points.
  Task     30 has      13079 integration points.
  Task     31 has      13306 integration points.
  Task     32 has      13135 integration points.
  Task     33 has      13168 integration points.
  Task     34 has      13083 integration points.
  Task     35 has      13238 integration points.
  Task     36 has      13248 integration points.
  Task     37 has      13108 integration points.
  Task     38 has      13199 integration points.
  Task     39 has      13142 integration points.
  Task     40 has      13176 integration points.
  Task     41 has      13030 integration points.
  Task     42 has      13193 integration points.
  Task     43 has      13306 integration points.
  Task     44 has      13068 integration points.
  Task     45 has      13206 integration points.
  Task     46 has      13173 integration points.
  Task     47 has      13123 integration points.
  Task     48 has      13100 integration points.
  Task     49 has      13206 integration points.
  Task     50 has      13215 integration points.
  Task     51 has      13111 integration points.
  Task     52 has      13212 integration points.
  Task     53 has      13093 integration points.
  Task     54 has      13167 integration points.
  Task     55 has      13057 integration points.
  Initializing partition tables, free-atom densities, potentials, etc. across the integration grid (initialize_grid_storage).
  | initialize_grid_storage: Actual outermost partition radius vs. multipole_radius_free
  | (-- VB: in principle, multipole_radius_free should be larger, hence this output)
  | Species        1: Confinement radius =              6.000000000000000 AA, multipole_radius_free =              6.071692442739658 AA.
  | Species        1: outer_partition_radius set to              6.071692442739658 AA .
  | Species        2: Confinement radius =              6.000000000000000 AA, multipole_radius_free =              6.029870734432609 AA.
  | Species        2: outer_partition_radius set to              6.029870734432609 AA .
  | The sparse table of interatomic distances needs     22.8840 kbyte instead of    15.4880 kbyte of memory.
  | Using the partition_type stratmann_smoother will reduce your memory usage.
  | Net number of integration points:   737384
  | of which are non-zero points    :   588751
  Renormalizing the initial density to the exact electron count on the 3D integration grid.
  | Initial density: Formal number of electrons (from input files) :     184.0000000000
  | Integrated number of electrons on 3D grid     :     184.0000851874
  | Charge integration error                      :       0.0000851874
  | Normalization factor for density and gradient :       0.9999995370
  Obtaining max. number of non-zero basis functions in each batch (get_n_compute_maxes).
  | Maximal number of non-zero basis functions:      991
  Selecting the method for density update.
  Loop over occupied states selected for charge density update.
  Hamiltonian matrix size:
  | Size of matrix non-packed:                887778
  | Size of matrix packed:          822337
  Allocating        2.131 MB for KS_eigenvector
  use_local_index: Max. local matrix size =       656067
  Task:     0 matrix size:     247754
  Task:     1 matrix size:     346188
  Task:     2 matrix size:     479013
  Task:     3 matrix size:     294346
  Task:     4 matrix size:     294575
  Task:     5 matrix size:     645606
  Task:     6 matrix size:     645644
  Task:     7 matrix size:     167200
  Task:     8 matrix size:     219405
  Task:     9 matrix size:     185745
  Task:    10 matrix size:     308239
  Task:    11 matrix size:     452781
  Task:    12 matrix size:     641891
  Task:    13 matrix size:     593111
  Task:    14 matrix size:     167905
  Task:    15 matrix size:     343864
  Task:    16 matrix size:     226775
  Task:    17 matrix size:     567124
  Task:    18 matrix size:     615289
  Task:    19 matrix size:     225753
  Task:    20 matrix size:     318667
  Task:    21 matrix size:     194335
  Task:    22 matrix size:     183292
  Task:    23 matrix size:     152628
  Task:    24 matrix size:     655705
  Task:    25 matrix size:     653046
  Task:    26 matrix size:     496206
  Task:    27 matrix size:     502979
  Task:    28 matrix size:     149331
  Task:    29 matrix size:     618650
  Task:    30 matrix size:     607851
  Task:    31 matrix size:     314321
  Task:    32 matrix size:     525500
  Task:    33 matrix size:     312482
  Task:    34 matrix size:     374920
  Task:    35 matrix size:     332155
  Task:    36 matrix size:     641194
  Task:    37 matrix size:     593462
  Task:    38 matrix size:     260771
  Task:    39 matrix size:     147066
  Task:    40 matrix size:     274073
  Task:    41 matrix size:     261644
  Task:    42 matrix size:     600911
  Task:    43 matrix size:     294523
  Task:    44 matrix size:     366391
  Task:    45 matrix size:     414214
  Task:    46 matrix size:     281772
  Task:    47 matrix size:     281196
  Task:    48 matrix size:     159325
  Task:    49 matrix size:     656067
  Task:    50 matrix size:     559558
  Task:    51 matrix size:     437498
  Task:    52 matrix size:     262974
  Task:    53 matrix size:     241109
  Task:    54 matrix size:     116883
  Task:    55 matrix size:     101475
  Integrating Hamiltonian matrix: batch-based integration.
  Time summed over all CPUs for integration: real work      127.910 s, elapsed      229.448 s
  Time get_set_sparse_local_matrix_scalapack:     0.014040 s
  Start compute_balanced_batch_distribution
  Done load balancing, time needed:      0.007 s
  Integrating overlap matrix with loadbalancing
  Time summed over all CPUs for integration: real work       35.847 s, elapsed       41.383 s
  Time get_set_full_local_matrix_scalapack:     0.015520 s

  Updating Kohn-Sham eigenvalues and eigenvectors using ELSI and the ELPA eigensolver.
  Overlap matrix is not singular
  | Lowest and highest eigenvalues :  0.12E+02,  0.87E-04
  Finished singularity check of overlap matrix
  | Time :     0.074 s
  Finished Cholesky decomposition
  | Time :     0.017 s
  Finished transformation to standard eigenproblem
  | Time :     0.012 s
  Starting ELPA eigensolver
  Finished solving standard eigenproblem
  | Time :     0.075 s
  Finished back-transformation of eigenvectors
  | Time :     0.003 s

  Obtaining occupation numbers and chemical potential using ELSI.
  | Chemical potential (Fermi level):    -8.25643849 eV
  Writing Kohn-Sham eigenvalues.

  State    Occupation    Eigenvalue [Ha]    Eigenvalue [eV]
      1       2.00000         -10.178236         -276.96390
      2       2.00000         -10.178236         -276.96390
      3       2.00000         -10.176305         -276.91135
      4       2.00000         -10.176305         -276.91135
      5       2.00000         -10.175237         -276.88228
      6       2.00000         -10.175237         -276.88228
      7       2.00000         -10.175154         -276.88003
      8       2.00000         -10.174510         -276.86250
      9       2.00000         -10.173888         -276.84558
     10       2.00000         -10.173888         -276.84558
     11       2.00000         -10.173532         -276.83589
     12       2.00000         -10.173160         -276.82576
     13       2.00000         -10.173158         -276.82570
     14       2.00000         -10.173078         -276.82352
     15       2.00000         -10.172618         -276.81102
     16       2.00000         -10.172616         -276.81096
     17       2.00000         -10.168721         -276.70499
     18       2.00000         -10.168720         -276.70496
     19       2.00000         -10.164562         -276.59182
     20       2.00000         -10.164562         -276.59182
     21       2.00000         -10.162486         -276.53531
     22       2.00000         -10.162261         -276.52918
     23       2.00000         -10.161995         -276.52196
     24       2.00000         -10.161995         -276.52196
     25       2.00000         -10.159346         -276.44988
     26       2.00000         -10.159028         -276.44121
     27       2.00000         -10.158115         -276.41637
     28       2.00000         -10.158112         -276.41628
     29       2.00000          -1.022886          -27.83414
     30       2.00000          -1.007586          -27.41781
     31       2.00000          -0.993219          -27.02687
     32       2.00000          -0.990440          -26.95124
     33       2.00000          -0.962895          -26.20171
     34       2.00000          -0.944771          -25.70852
     35       2.00000          -0.920113          -25.03754
     36       2.00000          -0.917763          -24.97361
     37       2.00000          -0.895178          -24.35902
     38       2.00000          -0.886902          -24.13383
     39       2.00000          -0.878254          -23.89850
     40       2.00000          -0.877842          -23.88729
     41       2.00000          -0.853172          -23.21599
     42       2.00000          -0.850863          -23.15315
     43       2.00000          -0.788227          -21.44876
     44       2.00000          -0.786246          -21.39484
     45       2.00000          -0.777432          -21.15499
     46       2.00000          -0.764840          -20.81235
     47       2.00000          -0.749678          -20.39977
     48       2.00000          -0.743151          -20.22217
     49       2.00000          -0.728887          -19.83403
     50       2.00000          -0.717967          -19.53688
     51       2.00000          -0.691664          -18.82113
     52       2.00000          -0.678976          -18.47589
     53       2.00000          -0.675468          -18.38043
     54       2.00000          -0.670971          -18.25804
     55       2.00000          -0.652885          -17.76591
     56       2.00000          -0.638579          -17.37661
     57       2.00000          -0.638203          -17.36639
     58       2.00000          -0.625497          -17.02065
     59       2.00000          -0.609651          -16.58944
     60       2.00000          -0.609291          -16.57965
     61       2.00000          -0.607243          -16.52392
     62       2.00000          -0.589992          -16.05449
     63       2.00000          -0.582863          -15.86052
     64       2.00000          -0.581898          -15.83425
     65       2.00000          -0.581847          -15.83287
     66       2.00000          -0.571215          -15.54356
     67       2.00000          -0.570819          -15.53278
     68       2.00000          -0.558637          -15.20129
     69       2.00000          -0.555826          -15.12479
     70       2.00000          -0.550724          -14.98595
     71       2.00000          -0.543635          -14.79305
     72       2.00000          -0.526748          -14.33355
     73       2.00000          -0.522796          -14.22599
     74       2.00000          -0.520673          -14.16823
     75       2.00000          -0.515001          -14.01390
     76       2.00000          -0.510780          -13.89903
     77       2.00000          -0.508647          -13.84100
     78       2.00000          -0.501516          -13.64696
     79       2.00000          -0.500069          -13.60757
     80       2.00000          -0.499877          -13.60234
     81       2.00000          -0.480676          -13.07986
     82       2.00000          -0.478490          -13.02039
     83       2.00000          -0.467064          -12.70945
     84       2.00000          -0.453034          -12.32768
     85       2.00000          -0.433671          -11.80079
     86       2.00000          -0.427618          -11.63608
     87       2.00000          -0.406710          -11.06714
     88       2.00000          -0.404110          -10.99638
     89       2.00000          -0.394662          -10.73929
     90       2.00000          -0.394582          -10.73712
     91       2.00000          -0.359049           -9.77023
     92       2.00000          -0.350669           -9.54219
     93       0.00000          -0.265662           -7.22903
     94       0.00000          -0.252763           -6.87804
     95       0.00000          -0.220536           -6.00109
     96       0.00000          -0.211949           -5.76743
     97       0.00000          -0.210445           -5.72650
     98       0.00000          -0.205236           -5.58477
     99       0.00000          -0.179322           -4.87961
    100       0.00000          -0.167839           -4.56714
    101       0.00000          -0.144300           -3.92661
    102       0.00000          -0.128984           -3.50983
    103       0.00000          -0.075080           -2.04303
    104       0.00000          -0.073006           -1.98659
    105       0.00000          -0.068007           -1.85057
    106       0.00000          -0.067378           -1.83344
    107       0.00000          -0.064300           -1.74970
    108       0.00000          -0.057392           -1.56171
    109       0.00000          -0.047605           -1.29539
    110       0.00000          -0.045038           -1.22554
    111       0.00000          -0.038160           -1.03839
    112       0.00000          -0.037869           -1.03046
    113       0.00000          -0.030908           -0.84104
    114       0.00000          -0.023685           -0.64451
    115       0.00000          -0.021413           -0.58267
    116       0.00000          -0.012780           -0.34776
    117       0.00000          -0.010278           -0.27967
    118       0.00000          -0.007739           -0.21059
    119       0.00000          -0.004951           -0.13473
    120       0.00000          -0.004450           -0.12108
    121       0.00000          -0.003976           -0.10819
    122       0.00000           0.008995            0.24477
    123       0.00000           0.014923            0.40608
    124       0.00000           0.021005            0.57157
    125       0.00000           0.023146            0.62984
    126       0.00000           0.025057            0.68183
    127       0.00000           0.026218            0.71343
    128       0.00000           0.029145            0.79308
    129       0.00000           0.030867            0.83992
    130       0.00000           0.040428            1.10010
    131       0.00000           0.041838            1.13846
    132       0.00000           0.043435            1.18192
    133       0.00000           0.044444            1.20937
    134       0.00000           0.051273            1.39520
    135       0.00000           0.055451            1.50889
    136       0.00000           0.055948            1.52243
    137       0.00000           0.059536            1.62007
    138       0.00000           0.063932            1.73967
    139       0.00000           0.067119            1.82641
    140       0.00000           0.068252            1.85724
    141       0.00000           0.076699            2.08708
    142       0.00000           0.076771            2.08905
    143       0.00000           0.080746            2.19722
    144       0.00000           0.085339            2.32219
    145       0.00000           0.086935            2.36561
    146       0.00000           0.091503            2.48993
    147       0.00000           0.091857            2.49955
    148       0.00000           0.094319            2.56655
    149       0.00000           0.095507            2.59888
    150       0.00000           0.098930            2.69203
    151       0.00000           0.102721            2.79518
    152       0.00000           0.104416            2.84132
    153       0.00000           0.107910            2.93637
    154       0.00000           0.112450            3.05992
    155       0.00000           0.115421            3.14077
    156       0.00000           0.117377            3.19399
    157       0.00000           0.118616            3.22772
    158       0.00000           0.126386            3.43915
    159       0.00000           0.130277            3.54503
    160       0.00000           0.131777            3.58583
    161       0.00000           0.135935            3.69899
    162       0.00000           0.139788            3.80383
    163       0.00000           0.141042            3.83794
    164       0.00000           0.144201            3.92392
    165       0.00000           0.146331            3.98187
    166       0.00000           0.152870            4.15981
    167       0.00000           0.154237            4.19699
    168       0.00000           0.156307            4.25333
    169       0.00000           0.160761            4.37453
    170       0.00000           0.165113            4.49295
    171       0.00000           0.165598            4.50616
    172       0.00000           0.166133            4.52072
    173       0.00000           0.167846            4.56733
    174       0.00000           0.170991            4.65291
    175       0.00000           0.179311            4.87929
    176       0.00000           0.180781            4.91930
    177       0.00000           0.186629            5.07845
    178       0.00000           0.186912            5.08612
    179       0.00000           0.192597            5.24084
    180       0.00000           0.193280            5.25941
    181       0.00000           0.197494            5.37407
    182       0.00000           0.199787            5.43649
    183       0.00000           0.204734            5.57109
    184       0.00000           0.207488            5.64605
    185       0.00000           0.211339            5.75082
    186       0.00000           0.213327            5.80492
    187       0.00000           0.219398            5.97012
    188       0.00000           0.222965            6.06719
    189       0.00000           0.230488            6.27190
    190       0.00000           0.231169            6.29044
    191       0.00000           0.234433            6.37925
    192       0.00000           0.237564            6.46446
    193       0.00000           0.244012            6.63991
    194       0.00000           0.246091            6.69649
    195       0.00000           0.252622            6.87420
    196       0.00000           0.254116            6.91485
    197       0.00000           0.257155            6.99755
    198       0.00000           0.260089            7.07739
    199       0.00000           0.261353            7.11177
    200       0.00000           0.267852            7.28862

  Highest occupied state (VBM) at     -9.54219390 eV
  | Occupation number:      2.00000000

  Lowest unoccupied state (CBM) at    -7.22902993 eV
  | Occupation number:      0.00000000

  Overall HOMO-LUMO gap:      2.31316398 eV.
  Calculating total energy contributions from superposition of free atom densities.

  Total energy components:
  | Sum of eigenvalues            :        -652.49139436 Ha      -17755.19421501 eV
  | XC energy correction          :        -154.18134058 Ha       -4195.48774126 eV
  | XC potential correction       :         198.04798163 Ha        5389.15977751 eV
  | Free-atom electrostatic energy:        -468.88738841 Ha      -12759.07501313 eV
  | Hartree energy correction     :           0.00000000 Ha           0.00000000 eV
  | Entropy correction            :           0.00000000 Ha           0.00000000 eV
  | ---------------------------
  | Total energy                  :       -1077.51214172 Ha      -29320.59719189 eV
  | Total energy, T -> 0          :       -1077.51214172 Ha      -29320.59719189 eV  <-- do not rely on this value for anything but (periodic) metals
  | Electronic free energy        :       -1077.51214172 Ha      -29320.59719189 eV

  Derived energy quantities:
  | Kinetic energy                :        1067.86656130 Ha       29058.12759417 eV
  | Electrostatic energy          :       -1991.19736244 Ha      -54183.23704480 eV
  | Energy correction for multipole
  | error in Hartree potential    :           0.00000000 Ha           0.00000000 eV
  | Sum of eigenvalues per atom                           :        -403.52714125 eV
  | Total energy (T->0) per atom                          :        -666.37720891 eV  <-- do not rely on this value for anything but (periodic) metals
  | Electronic free energy per atom                       :        -666.37720891 eV
  Initialize hartree_potential_storage
  Max. number of atoms included in rho_multipole:           44

  End scf initialization - timings             :  max(cpu_time)    wall_clock(cpu1)
  | Time for scf. initialization               :        6.496 s           6.552 s
  | Boundary condition initialization          :        0.001 s           0.004 s
  | Integration                                :        4.889 s           4.895 s
  | Solution of K.-S. eqns.                    :        0.197 s           0.212 s
  | Grid partitioning                          :        0.716 s           0.720 s
  | Preloading free-atom quantities on grid    :        0.014 s           0.016 s
  | Free-atom superposition energy             :        0.055 s           0.056 s
  | Total energy evaluation                    :        0.001 s           0.003 s

  Partial memory accounting:
  | Current value for overall tracked memory usage on task 0  :           3.934 MB
  | Peak value for overall tracked memory usage on task 0     :          28.067 MB after allocating zora_vector2
  | Largest tracked array allocation on task 0 so far         :           7.857 MB  when allocating hamiltonian_shell
  Note:  These values currently only include a subset of arrays which are explicitly tracked.
  The "true" memory usage will be greater.
------------------------------------------------------------

------------------------------------------------------------
          Begin self-consistency iteration #    1

  Date     :  20210620, Time     :  174757.961
------------------------------------------------------------
  Evaluating new KS density.
  Integration grid: deviation in total charge (<rho> - N_e) =   0.000000E+00
  Pulay mixing of updated and previous charge densities.

  Evaluating partitioned Hartree potential by multipole expansion.
  | Analytical far-field extrapolation by fixed multipoles:
  | Hartree multipole sum: apparent total charge =   0.767737E-04
  Summing up the Hartree potential with load balancing.
  Time summed over all CPUs for potential: real work       21.346 s, elapsed       36.232 s
  | RMS charge density error from multipole expansion :   0.126504E-01

  Start compute_balanced_batch_distribution
  Done load balancing, time needed:      0.006 s
  Integrating Hamiltonian matrix: batch-based integration with load balancing
  Time summed over all CPUs for integration: real work      142.122 s, elapsed      159.871 s
  Time get_set_full_local_matrix_scalapack:     0.020515 s
  Start compute_balanced_batch_distribution
  Done load balancing, time needed:      0.006 s

  Updating Kohn-Sham eigenvalues and eigenvectors using ELSI and the ELPA eigensolver.
  Finished transformation to standard eigenproblem
  | Time :     0.013 s
  Starting ELPA eigensolver
  Finished solving standard eigenproblem
  | Time :     0.078 s
  Finished back-transformation of eigenvectors
  | Time :     0.004 s

  Obtaining occupation numbers and chemical potential using ELSI.
  | Chemical potential (Fermi level):    -5.99270836 eV
  Writing Kohn-Sham eigenvalues.

  State    Occupation    Eigenvalue [Ha]    Eigenvalue [eV]
      1       2.00000          -9.996509         -272.01885
      2       2.00000          -9.996509         -272.01885
      3       2.00000          -9.987282         -271.76777
      4       2.00000          -9.987054         -271.76156
      5       2.00000          -9.986664         -271.75094
      6       2.00000          -9.986341         -271.74215
      7       2.00000          -9.983738         -271.67132
      8       2.00000          -9.983738         -271.67132
      9       2.00000          -9.973260         -271.38622
     10       2.00000          -9.973260         -271.38622
     11       2.00000          -9.971058         -271.32630
     12       2.00000          -9.971058         -271.32629
     13       2.00000          -9.953650         -270.85260
     14       2.00000          -9.953650         -270.85260
     15       2.00000          -9.953010         -270.83517
     16       2.00000          -9.952358         -270.81744
     17       2.00000          -9.949374         -270.73624
     18       2.00000          -9.949374         -270.73623
     19       2.00000          -9.948923         -270.72397
     20       2.00000          -9.948923         -270.72397
     21       2.00000          -9.946470         -270.65721
     22       2.00000          -9.946469         -270.65721
     23       2.00000          -9.941227         -270.51455
     24       2.00000          -9.941227         -270.51454
     25       2.00000          -9.940005         -270.48131
     26       2.00000          -9.939546         -270.46880
     27       2.00000          -9.938140         -270.43054
     28       2.00000          -9.938140         -270.43054
     29       2.00000          -0.884452          -24.06717
     30       2.00000          -0.859190          -23.37974
     31       2.00000          -0.842973          -22.93847
     32       2.00000          -0.837503          -22.78962
     33       2.00000          -0.809782          -22.03528
     34       2.00000          -0.798517          -21.72877
     35       2.00000          -0.779728          -21.21747
     36       2.00000          -0.770151          -20.95687
     37       2.00000          -0.746330          -20.30867
     38       2.00000          -0.736415          -20.03886
     39       2.00000          -0.735390          -20.01097
     40       2.00000          -0.730122          -19.86764
     41       2.00000          -0.709255          -19.29980
     42       2.00000          -0.701066          -19.07696
     43       2.00000          -0.646431          -17.59029
     44       2.00000          -0.643042          -17.49805
     45       2.00000          -0.634850          -17.27516
     46       2.00000          -0.628907          -17.11344
     47       2.00000          -0.606850          -16.51323
     48       2.00000          -0.601984          -16.38082
     49       2.00000          -0.595129          -16.19429
     50       2.00000          -0.576261          -15.68087
     51       2.00000          -0.557272          -15.16415
     52       2.00000          -0.543748          -14.79614
     53       2.00000          -0.535809          -14.58009
     54       2.00000          -0.530768          -14.44294
     55       2.00000          -0.521212          -14.18290
     56       2.00000          -0.504869          -13.73820
     57       2.00000          -0.484179          -13.17519
     58       2.00000          -0.481109          -13.09164
     59       2.00000          -0.480502          -13.07514
     60       2.00000          -0.473365          -12.88092
     61       2.00000          -0.468947          -12.76069
     62       2.00000          -0.456777          -12.42953
     63       2.00000          -0.452038          -12.30057
     64       2.00000          -0.451940          -12.29792
     65       2.00000          -0.440438          -11.98492
     66       2.00000          -0.437230          -11.89763
     67       2.00000          -0.431696          -11.74706
     68       2.00000          -0.428393          -11.65716
     69       2.00000          -0.424524          -11.55188
     70       2.00000          -0.420129          -11.43230
     71       2.00000          -0.412801          -11.23289
     72       2.00000          -0.398799          -10.85188
     73       2.00000          -0.394585          -10.73721
     74       2.00000          -0.391933          -10.66503
     75       2.00000          -0.383812          -10.44407
     76       2.00000          -0.378769          -10.30682
     77       2.00000          -0.377949          -10.28450
     78       2.00000          -0.374070          -10.17897
     79       2.00000          -0.364890           -9.92916
     80       2.00000          -0.363484           -9.89091
     81       2.00000          -0.346520           -9.42930
     82       2.00000          -0.345195           -9.39324
     83       2.00000          -0.339296           -9.23271
     84       2.00000          -0.330251           -8.98658
     85       2.00000          -0.315890           -8.59581
     86       2.00000          -0.301348           -8.20010
     87       2.00000          -0.280336           -7.62833
     88       2.00000          -0.277903           -7.56214
     89       2.00000          -0.274474           -7.46882
     90       2.00000          -0.269198           -7.32525
     91       2.00000          -0.236750           -6.44229
     92       2.00000          -0.224934           -6.12076
     93       0.00000          -0.141177           -3.84162
     94       0.00000          -0.133023           -3.61975
     95       0.00000          -0.097970           -2.66591
     96       0.00000          -0.094224           -2.56398
     97       0.00000          -0.086657           -2.35807
     98       0.00000          -0.083136           -2.26225
     99       0.00000          -0.053395           -1.45294
    100       0.00000          -0.051441           -1.39978
    101       0.00000          -0.028068           -0.76377
    102       0.00000          -0.025630           -0.69744
    103       0.00000          -0.022725           -0.61837
    104       0.00000          -0.022681           -0.61719
    105       0.00000          -0.013024           -0.35441
    106       0.00000          -0.009487           -0.25816
    107       0.00000          -0.002775           -0.07551
    108       0.00000           0.004095            0.11142
    109       0.00000           0.005501            0.14969
    110       0.00000           0.017516            0.47662
    111       0.00000           0.021497            0.58496
    112       0.00000           0.031880            0.86750
    113       0.00000           0.032230            0.87702
    114       0.00000           0.032724            0.89047
    115       0.00000           0.043193            1.17534
    116       0.00000           0.049893            1.35766
    117       0.00000           0.050440            1.37255
    118       0.00000           0.052040            1.41607
    119       0.00000           0.062484            1.70027
    120       0.00000           0.063589            1.73035
    121       0.00000           0.070417            1.91614
    122       0.00000           0.074623            2.03060
    123       0.00000           0.077391            2.10590
    124       0.00000           0.080289            2.18479
    125       0.00000           0.084475            2.29868
    126       0.00000           0.092766            2.52429
    127       0.00000           0.099030            2.69474
    128       0.00000           0.105797            2.87888
    129       0.00000           0.106689            2.90316
    130       0.00000           0.114030            3.10292
    131       0.00000           0.115791            3.15082
    132       0.00000           0.118124            3.21430
    133       0.00000           0.124021            3.37479
    134       0.00000           0.124588            3.39022
    135       0.00000           0.128942            3.50868
    136       0.00000           0.130993            3.56450
    137       0.00000           0.138678            3.77363
    138       0.00000           0.140455            3.82197
    139       0.00000           0.141299            3.84494
    140       0.00000           0.143375            3.90144
    141       0.00000           0.145659            3.96360
    142       0.00000           0.148774            4.04834
    143       0.00000           0.154030            4.19136
    144       0.00000           0.155333            4.22682
    145       0.00000           0.158253            4.30629
    146       0.00000           0.158678            4.31786
    147       0.00000           0.160731            4.37372
    148       0.00000           0.162522            4.42246
    149       0.00000           0.167560            4.55954
    150       0.00000           0.173969            4.73393
    151       0.00000           0.176044            4.79040
    152       0.00000           0.180692            4.91688
    153       0.00000           0.186083            5.06357
    154       0.00000           0.187698            5.10752
    155       0.00000           0.189038            5.14399
    156       0.00000           0.189166            5.14748
    157       0.00000           0.191822            5.21975
    158       0.00000           0.198721            5.40747
    159       0.00000           0.199027            5.41581
    160       0.00000           0.202127            5.50014
    161       0.00000           0.204493            5.56452
    162       0.00000           0.206242            5.61214
    163       0.00000           0.208319            5.66865
    164       0.00000           0.213966            5.82232
    165       0.00000           0.215135            5.85413
    166       0.00000           0.219560            5.97454
    167       0.00000           0.224423            6.10687
    168       0.00000           0.227028            6.17775
    169       0.00000           0.227987            6.20385
    170       0.00000           0.232029            6.31384
    171       0.00000           0.233026            6.34096
    172       0.00000           0.237536            6.46367
    173       0.00000           0.237789            6.47056
    174       0.00000           0.245731            6.68667
    175       0.00000           0.245916            6.69173
    176       0.00000           0.250301            6.81105
    177       0.00000           0.256891            6.99036
    178       0.00000           0.257139            6.99711
    179       0.00000           0.261011            7.10246
    180       0.00000           0.265460            7.22353
    181       0.00000           0.270059            7.34868
    182       0.00000           0.276743            7.53057
    183       0.00000           0.278010            7.56505
    184       0.00000           0.279618            7.60879
    185       0.00000           0.283995            7.72790
    186       0.00000           0.288276            7.84439
    187       0.00000           0.292788            7.96717
    188       0.00000           0.293568            7.98839
    189       0.00000           0.296884            8.07862
    190       0.00000           0.307061            8.35557
    191       0.00000           0.310727            8.45531
    192       0.00000           0.314066            8.54617
    193       0.00000           0.314930            8.56968
    194       0.00000           0.323733            8.80923
    195       0.00000           0.326853            8.89411
    196       0.00000           0.335901            9.14032
    197       0.00000           0.336961            9.16918
    198       0.00000           0.340773            9.27291
    199       0.00000           0.342285            9.31405
    200       0.00000           0.345342            9.39723

  Highest occupied state (VBM) at     -6.12075677 eV
  | Occupation number:      2.00000000

  Lowest unoccupied state (CBM) at    -3.84161703 eV
  | Occupation number:      0.00000000

  Overall HOMO-LUMO gap:      2.27913974 eV.

  Total energy components:
  | Sum of eigenvalues            :        -623.43883342 Ha      -16964.63380836 eV
  | XC energy correction          :        -156.11223314 Ha       -4248.03000106 eV
  | XC potential correction       :         200.55508255 Ha        5457.38146477 eV
  | Free-atom electrostatic energy:        -468.88738841 Ha      -12759.07501313 eV
  | Hartree energy correction     :         -28.68742887 Ha        -780.62465720 eV
  | Entropy correction            :           0.00000000 Ha           0.00000000 eV
  | ---------------------------
  | Total energy                  :       -1076.57080128 Ha      -29294.98201497 eV
  | Total energy, T -> 0          :       -1076.57080128 Ha      -29294.98201497 eV  <-- do not rely on this value for anything but (periodic) metals
  | Electronic free energy        :       -1076.57080128 Ha      -29294.98201497 eV

  Derived energy quantities:
  | Kinetic energy                :        1076.50282984 Ha       29293.13241819 eV
  | Electrostatic energy          :       -1996.96139798 Ha      -54340.08443211 eV
  | Energy correction for multipole
  | error in Hartree potential    :          -0.06964528 Ha          -1.89514451 eV
  | Sum of eigenvalues per atom                           :        -385.55985928 eV
  | Total energy (T->0) per atom                          :        -665.79504579 eV  <-- do not rely on this value for anything but (periodic) metals
  | Electronic free energy per atom                       :        -665.79504579 eV

  Self-consistency convergence accuracy:
  | Change of charge density      :  0.1046E+01
  | Change of sum of eigenvalues  :  0.7906E+03 eV
  | Change of total energy        :  0.2562E+02 eV

  End self-consistency iteration #     1       :  max(cpu_time)    wall_clock(cpu1)
  | Time for this iteration                    :        4.702 s           4.707 s
  | Charge density update                      :        1.016 s           1.017 s
  | Density mixing                             :        0.002 s           0.004 s
  | Hartree multipole update                   :        0.009 s           0.010 s
  | Hartree multipole summation                :        0.657 s           0.658 s
  | Integration                                :        2.860 s           2.860 s
  | Solution of K.-S. eqns.                    :        0.144 s           0.144 s
  | Total energy evaluation                    :        0.000 s           0.000 s

  Partial memory accounting:
  | Current value for overall tracked memory usage on task 0  :           3.934 MB
  | Peak value for overall tracked memory usage on task 0     :          28.958 MB after allocating zora_vector2
  | Largest tracked array allocation on task 0 so far         :           7.857 MB  when allocating hamiltonian_shell
  Note:  These values currently only include a subset of arrays which are explicitly tracked.
  The "true" memory usage will be greater.
------------------------------------------------------------

------------------------------------------------------------
          Begin self-consistency iteration #    2

  Date     :  20210620, Time     :  174802.670
------------------------------------------------------------
  Evaluating new KS density.
  Integration grid: deviation in total charge (<rho> - N_e) =   2.842171E-14
[...]
     30       2.00000          -0.805456          -21.91758
     31       2.00000          -0.788672          -21.46087
     32       2.00000          -0.785831          -21.38356
     33       2.00000          -0.755748          -20.56495
     34       2.00000          -0.742042          -20.19200
     35       2.00000          -0.720696          -19.61113
     36       2.00000          -0.714942          -19.45455
     37       2.00000          -0.690004          -18.77597
     38       2.00000          -0.680797          -18.52543
     39       2.00000          -0.677328          -18.43103
     40       2.00000          -0.674104          -18.34330
     41       2.00000          -0.649791          -17.68170
     42       2.00000          -0.642505          -17.48346
     43       2.00000          -0.587867          -15.99669
     44       2.00000          -0.585160          -15.92300
     45       2.00000          -0.574500          -15.63293
     46       2.00000          -0.568405          -15.46710
     47       2.00000          -0.547854          -14.90786
     48       2.00000          -0.542284          -14.75629
     49       2.00000          -0.534016          -14.53132
     50       2.00000          -0.516872          -14.06479
     51       2.00000          -0.495861          -13.49306
     52       2.00000          -0.483288          -13.15095
     53       2.00000          -0.475848          -12.94847
     54       2.00000          -0.469815          -12.78431
     55       2.00000          -0.461256          -12.55141
     56       2.00000          -0.444420          -12.09328
     57       2.00000          -0.423093          -11.51294
     58       2.00000          -0.420951          -11.45465
     59       2.00000          -0.417367          -11.35714
     60       2.00000          -0.412536          -11.22567
     61       2.00000          -0.404627          -11.01046
     62       2.00000          -0.396090          -10.77816
     63       2.00000          -0.392967          -10.69316
     64       2.00000          -0.392660          -10.68481
     65       2.00000          -0.386236          -10.51001
     66       2.00000          -0.375938          -10.22979
     67       2.00000          -0.371965          -10.12169
     68       2.00000          -0.370305          -10.07651
     69       2.00000          -0.366597           -9.97562
     70       2.00000          -0.361183           -9.82828
     71       2.00000          -0.350328           -9.53290
     72       2.00000          -0.349986           -9.52362
     73       2.00000          -0.341201           -9.28454
     74       2.00000          -0.335720           -9.13540
     75       2.00000          -0.333549           -9.07633
     76       2.00000          -0.331054           -9.00845
     77       2.00000          -0.316634           -8.61605
     78       2.00000          -0.314258           -8.55139
     79       2.00000          -0.305053           -8.30092
     80       2.00000          -0.300531           -8.17786
     81       2.00000          -0.300388           -8.17396
     82       2.00000          -0.293142           -7.97681
     83       2.00000          -0.278394           -7.57550
     84       2.00000          -0.276190           -7.51553
     85       2.00000          -0.270508           -7.36090
     86       2.00000          -0.260474           -7.08786
     87       2.00000          -0.237988           -6.47598
     88       2.00000          -0.235951           -6.42055
     89       2.00000          -0.230104           -6.26144
     90       2.00000          -0.227844           -6.19996
     91       2.00000          -0.191599           -5.21368
     92       2.00000          -0.180966           -4.92434
     93       0.00000          -0.097333           -2.64857
     94       0.00000          -0.087772           -2.38839
     95       0.00000          -0.054827           -1.49192
     96       0.00000          -0.049662           -1.35136
     97       0.00000          -0.043837           -1.19286
     98       0.00000          -0.039771           -1.08222
     99       0.00000          -0.010386           -0.28261
    100       0.00000          -0.007629           -0.20759
    101       0.00000          -0.006759           -0.18393
    102       0.00000          -0.001880           -0.05115
    103       0.00000          -0.000503           -0.01368
    104       0.00000           0.008977            0.24429
    105       0.00000           0.012026            0.32724
    106       0.00000           0.018858            0.51316
    107       0.00000           0.025247            0.68700
    108       0.00000           0.026250            0.71430
    109       0.00000           0.036291            0.98753
    110       0.00000           0.041697            1.13463
    111       0.00000           0.042224            1.14896
    112       0.00000           0.052291            1.42291
    113       0.00000           0.054214            1.47525
    114       0.00000           0.054997            1.49656
    115       0.00000           0.064985            1.76834
    116       0.00000           0.073716            2.00592
    117       0.00000           0.074364            2.02356
    118       0.00000           0.088640            2.41202
    119       0.00000           0.095148            2.58911
    120       0.00000           0.095720            2.60469
    121       0.00000           0.101258            2.75538
    122       0.00000           0.103128            2.80626
    123       0.00000           0.105424            2.86873
    124       0.00000           0.108678            2.95728
    125       0.00000           0.112007            3.04788
    126       0.00000           0.123435            3.35883
    127       0.00000           0.124122            3.37754
    128       0.00000           0.134606            3.66281
    129       0.00000           0.135871            3.69725
    130       0.00000           0.141272            3.84422
    131       0.00000           0.147559            4.01528
    132       0.00000           0.148499            4.04087
    133       0.00000           0.154538            4.20520
    134       0.00000           0.157133            4.27580
    135       0.00000           0.159074            4.32862
    136       0.00000           0.163169            4.44006
    137       0.00000           0.164313            4.47117
    138       0.00000           0.170962            4.65211
    139       0.00000           0.174448            4.74698
    140       0.00000           0.175537            4.77660
    141       0.00000           0.176796            4.81085
    142       0.00000           0.182393            4.96317
    143       0.00000           0.184813            5.02901
    144       0.00000           0.187900            5.11302
    145       0.00000           0.192208            5.23025
    146       0.00000           0.192805            5.24649
    147       0.00000           0.196373            5.34359
    148       0.00000           0.198339            5.39709
    149       0.00000           0.206861            5.62898
    150       0.00000           0.207488            5.64603
    151       0.00000           0.209014            5.68756
    152       0.00000           0.212104            5.77166
    153       0.00000           0.215781            5.87169
    154       0.00000           0.217284            5.91259
    155       0.00000           0.223176            6.07293
    156       0.00000           0.223792            6.08970
    157       0.00000           0.224449            6.10756
    158       0.00000           0.225735            6.14256
    159       0.00000           0.234135            6.37114
    160       0.00000           0.237033            6.44999
    161       0.00000           0.238911            6.50110
    162       0.00000           0.239631            6.52069
    163       0.00000           0.242113            6.58823
    164       0.00000           0.248546            6.76328
    165       0.00000           0.251828            6.85259
    166       0.00000           0.254442            6.92373
    167       0.00000           0.256997            6.99324
    168       0.00000           0.258388            7.03109
    169       0.00000           0.260281            7.08261
    170       0.00000           0.262170            7.13402
    171       0.00000           0.268625            7.30966
    172       0.00000           0.270385            7.35754
    173       0.00000           0.273465            7.44136
    174       0.00000           0.277744            7.55781
    175       0.00000           0.278635            7.58205
    176       0.00000           0.284712            7.74740
    177       0.00000           0.287534            7.82420
    178       0.00000           0.291649            7.93616
    179       0.00000           0.296529            8.06896
    180       0.00000           0.297018            8.08226
    181       0.00000           0.302447            8.23000
    182       0.00000           0.307596            8.37012
    183       0.00000           0.309713            8.42771
    184       0.00000           0.312489            8.50325
    185       0.00000           0.317748            8.64636
    186       0.00000           0.321159            8.73917
    187       0.00000           0.324229            8.82271
    188       0.00000           0.325024            8.84435
    189       0.00000           0.331174            9.01172
    190       0.00000           0.339636            9.24195
    191       0.00000           0.340489            9.26516
    192       0.00000           0.346903            9.43972
    193       0.00000           0.349240            9.50329
    194       0.00000           0.358704            9.76083
    195       0.00000           0.360613            9.81278
    196       0.00000           0.366512            9.97330
    197       0.00000           0.374549           10.19200
    198       0.00000           0.374642           10.19454
    199       0.00000           0.378746           10.30620
    200       0.00000           0.385147           10.48039

  Highest occupied state (VBM) at     -4.92434212 eV
  | Occupation number:      2.00000000

  Lowest unoccupied state (CBM) at    -2.64856617 eV
  | Occupation number:      0.00000000

  Overall HOMO-LUMO gap:      2.27577594 eV.

  Total energy components:
  | Sum of eigenvalues            :        -612.85103304 Ha      -16676.52510118 eV
  | XC energy correction          :        -156.99893886 Ha       -4272.15849142 eV
  | XC potential correction       :         201.68952272 Ha        5488.25115232 eV
  | Free-atom electrostatic energy:        -468.88738841 Ha      -12759.07501313 eV
  | Hartree energy correction     :         -39.15502058 Ha       -1065.46232011 eV
  | Entropy correction            :           0.00000000 Ha           0.00000000 eV
  | ---------------------------
  | Total energy                  :       -1076.20285816 Ha      -29284.96977351 eV
  | Total energy, T -> 0          :       -1076.20285816 Ha      -29284.96977351 eV  <-- do not rely on this value for anything but (periodic) metals
  | Electronic free energy        :       -1076.20285816 Ha      -29284.96977351 eV

  Derived energy quantities:
  | Kinetic energy                :        1073.58849268 Ha       29213.82926917 eV
  | Electrostatic energy          :       -1992.79241199 Ha      -54226.64055127 eV
  | Energy correction for multipole
  | error in Hartree potential    :          -0.13162145 Ha          -3.58160195 eV
  | Sum of eigenvalues per atom                           :        -379.01193412 eV
  | Total energy (T->0) per atom                          :        -665.56749485 eV  <-- do not rely on this value for anything but (periodic) metals
  | Electronic free energy per atom                       :        -665.56749485 eV
  End evaluation of scaled ZORA corrections.
  | Time for scaled ZORA corrections           :        4.528 s           4.539 s
------------------------------------------------------------

  Energy and forces in a compact form:
  | Total energy uncorrected      :         -0.292849697735144E+05 eV
  | Total energy corrected        :         -0.292849697735144E+05 eV  <-- do not rely on this value for anything but (periodic) metals
  | Electronic free energy        :         -0.292849697735144E+05 eV

  ------------------------------------ 
  Start decomposition of the XC Energy 
  ------------------------------------ 
  X and C from original XC functional choice 
  Hartree-Fock Energy :          0.000000000 Ha              0.000000000 eV
  X Energy            :       -150.811355762 Ha          -4103.785788598 eV
  C Energy            :         -6.187583098 Ha           -168.372702818 eV
  Total XC Energy     :       -156.998938860 Ha          -4272.158491415 eV
  ------------------------------------ 
  LDA X and C from self-consistent density 
  X Energy LDA        :       -136.612486472 Ha          -3717.414896887 eV
  C Energy LDA        :        -11.901560586 Ha           -323.857941243 eV
  ------------------------------------ 
  End decomposition of the XC Energy 
  ------------------------------------ 

------------------------------------------------------------

------------------------------------------------------------------------------
  Final output of selected total energy values:

  The following output summarizes some interesting total energy values
  at the end of a run (AFTER all relaxation, molecular dynamics, etc.).

  | Total energy of the DFT / Hartree-Fock s.c.f. calculation      :         -29284.969773514 eV
  | Final zero-broadening corrected energy (caution - metals only) :         -29284.969773514 eV
  | For reference only, the value of 1 Hartree used in FHI-aims is :             27.211384500 eV

  Before relying on these values, please be sure to understand exactly which
  total energy value is referred to by a given number. Different objects may
  all carry the same name 'total energy'. Definitions:

  Total energy of the DFT / Hartree-Fock s.c.f. calculation:
  | Note that this energy does not include ANY quantities calculated after the
  | s.c.f. cycle, in particular not ANY RPA, MP2, etc. many-body perturbation terms.
  | Scalar relativistic effects have been included in the 'scaled ZORA' approximation.

  Final zero-broadening corrected energy:
  | For metallic systems only, a broadening of the occupation numbers at the Fermi
  | level can be extrapolated back to zero broadening by an electron-gas inspired
  | formula. For all systems that are not real metals, this value can be
  | meaningless and should be avoided.

------------------------------------------------------------------------------
  Methods described in the following list of references were used in this FHI-aims run.
  If you publish the results, please make sure to cite these reference if they apply.
  FHI-aims is an academic code, and for our developers (often, Ph.D. students
  and postdocs), scientific credit in the community is essential.
  Thank you for helping us!

  For any use of FHI-aims, please cite:

    Volker Blum, Ralf Gehrke, Felix Hanke, Paula Havu, Ville Havu,
    Xinguo Ren, Karsten Reuter, and Matthias Scheffler
    'Ab initio molecular simulations with numeric atom-centered orbitals'
    Computer Physics Communications 180, 2175-2196 (2009)
    http://dx.doi.org/10.1016/j.cpc.2009.06.022


  The scalable eigensolver library ELPA was used in your run.
  ELPA is essential especially for large systems on hundreds or thousands of CPUs.
  For ELPA, please cite:

    Andreas Marek, Volker Blum, Rainer Johanni, Ville Havu, Bruno Lang,
    Thomas Auckenthaler, Alexander Heinecke, Hans-Joachim Bungartz, and Hermann Lederer,
    'The ELPA Library - Scalable Parallel Eigenvalue Solutions
    for Electronic Structure Theory and Computational Science'
    The Journal of Physics: Condensed Matter 26, 213201 (2014).
    http://dx.doi.org/10.1088/0953-8984/26/21/213201


  The ELSI infrastructure was used in your run to solve the Kohn-Sham electronic structure.
  Please check out http://elsi-interchange.org to learn more.
  If scalability is important for your project, please acknowledge ELSI by citing:

    V. W-z. Yu, F. Corsetti, A. Garcia, W. P. Huhn, M. Jacquelin, W. Jia,
    B. Lange, L. Lin, J. Lu, W. Mi, A. Seifitokaldani, A. Vazquez-Mayagoitia,
    C. Yang, H. Yang, and V. Blum
    'ELSI: A unified software interface for Kohn-Sham electronic structure solvers'
    Computer Physics Communications 222, 267-285 (2018).
    http://dx.doi.org/10.1016/j.cpc.2017.09.007


  For the real-space grid partitioning and parallelization used in this calculation, please cite:

    Ville Havu, Volker Blum, Paula Havu, and Matthias Scheffler,
    'Efficient O(N) integration for all-electron electronic structure calculation'
    'using numerically tabulated basis functions'
    Journal of Computational Physics 228, 8367-8379 (2009).
    http://dx.doi.org/10.1016/j.jcp.2009.08.008

  Of course, there are many other important community references, e.g., those cited in the
  above references. Our list is limited to references that describe implementations in the
  FHI-aims code. The reason is purely practical (length of this list) - please credit others as well.

------------------------------------------------------------
          Leaving FHI-aims.
          Date     :  20210620, Time     :  174911.802

          Computational steps:
          | Number of self-consistency cycles          :           16
          | Number of SCF (re)initializations          :            1

          Detailed time accounting                     :  max(cpu_time)    wall_clock(cpu1)
          | Total time                                 :       80.589 s          80.764 s
          | Preparation time                           :        0.184 s           0.176 s
          | Boundary condition initalization           :        0.001 s           0.004 s
          | Grid partitioning                          :        0.716 s           0.720 s
          | Preloading free-atom quantities on grid    :        0.014 s           0.016 s
          | Free-atom superposition energy             :        0.055 s           0.056 s
          | Total time for integrations                :       48.037 s          48.046 s
          | Total time for solution of K.-S. equations :        2.273 s           2.292 s
          | Total time for density update              :       16.395 s          16.355 s
          | Total time for mixing                      :        0.111 s           0.111 s
          | Total time for Hartree multipole update    :        0.134 s           0.144 s
          | Total time for Hartree multipole sum       :        7.260 s           7.260 s
          | Total time for total energy evaluation     :        0.006 s           0.030 s
          | Total time for scaled ZORA corrections     :        4.528 s           4.539 s

          Partial memory accounting:
          | Residual value for overall tracked memory usage across tasks :     0.000000 MB (should be 0.000000 MB)
          | Peak values for overall tracked memory usage (after allocating zora_vector2):
          |   Minimum:       27.016 MB (on task 56)
          |   Maximum:       33.088 MB (on task 50)
          |   Average:       30.080 MB
          | Largest tracked array allocation (hamiltonian_shell):
          |   Minimum:        7.857 MB (on task  1)
          |   Maximum:        7.857 MB (on task  1)
          |   Average:        7.857 MB
          Note:  These values currently only include a subset of arrays which are explicitly tracked.
          The "true" memory usage will be greater.

          Have a nice day.
------------------------------------------------------------
