  MPI-parallelism will be employed.
------------------------------------------------------------
          Invoking FHI-aims ...
          Version 180607
          Git rev. (modified): 6724847 Fix JSON memory corruption in scf_solver
          Compiled on 2018/06/27 at 16:00:31 on host coe.psc.edu.

          When using FHI-aims, please cite the following reference:

          Volker Blum, Ralf Gehrke, Felix Hanke, Paula Havu,
          Ville Havu, Xinguo Ren, Karsten Reuter, and Matthias Scheffler,
          'Ab Initio Molecular Simulations with Numeric Atom-Centered Orbitals',
          Computer Physics Communications 180, 2175-2196 (2009)

          For any questions about FHI-aims, please visit the aimsclub website
          with its forums and wiki. Contributions to both the forums and the
          wiki are warmly encouraged - they are for you, and everyone is welcome there.

------------------------------------------------------------



  Date     :  20210620, Time     :  172446.250
  Time zero on CPU 1             :   0.247731000000000E+00  s.
  Internal wall clock time zero  :           393441886.250  s.

  FHI-aims created a unique identifier for this run for later identification
  aims_uuid : 71F73973-2945-4E60-A816-694A56752657

  Using       56 parallel tasks.
  Task        0 on host d024 reporting.
  Task        1 on host d024 reporting.
  Task        2 on host d024 reporting.
  Task        3 on host d024 reporting.
  Task        4 on host d024 reporting.
  Task        5 on host d024 reporting.
  Task        6 on host d024 reporting.
  Task        7 on host d024 reporting.
  Task        8 on host d024 reporting.
  Task        9 on host d024 reporting.
  Task       10 on host d024 reporting.
  Task       11 on host d024 reporting.
  Task       12 on host d024 reporting.
  Task       13 on host d024 reporting.
  Task       14 on host d024 reporting.
  Task       15 on host d024 reporting.
  Task       16 on host d024 reporting.
  Task       17 on host d024 reporting.
  Task       18 on host d024 reporting.
  Task       19 on host d024 reporting.
  Task       20 on host d024 reporting.
  Task       21 on host d024 reporting.
  Task       22 on host d024 reporting.
  Task       23 on host d024 reporting.
  Task       24 on host d024 reporting.
  Task       25 on host d024 reporting.
  Task       26 on host d024 reporting.
  Task       27 on host d024 reporting.
  Task       28 on host d024 reporting.
  Task       29 on host d024 reporting.
  Task       30 on host d024 reporting.
  Task       31 on host d024 reporting.
  Task       32 on host d024 reporting.
  Task       33 on host d024 reporting.
  Task       34 on host d024 reporting.
  Task       35 on host d024 reporting.
  Task       36 on host d024 reporting.
  Task       37 on host d024 reporting.
  Task       38 on host d024 reporting.
  Task       39 on host d024 reporting.
  Task       40 on host d024 reporting.
  Task       41 on host d024 reporting.
  Task       42 on host d024 reporting.
  Task       43 on host d024 reporting.
  Task       44 on host d024 reporting.
  Task       45 on host d024 reporting.
  Task       46 on host d024 reporting.
  Task       47 on host d024 reporting.
  Task       48 on host d024 reporting.
  Task       49 on host d024 reporting.
  Task       50 on host d024 reporting.
  Task       51 on host d024 reporting.
  Task       52 on host d024 reporting.
  Task       53 on host d024 reporting.
  Task       54 on host d024 reporting.
  Task       55 on host d024 reporting.

  Performing system and environment tests:
  *** Environment variable OMP_NUM_THREADS is not set
  *** For performance reasons you might want to set it to 1
  | Stacksize not measured: no C compiler
  | Checking for scalapack...
  | Testing pdtran()...
  | All pdtran() tests passed.

  Obtaining array dimensions for all initial allocations:
  
  -----------------------------------------------------------------------
  Parsing control.in (first pass over file, find array dimensions only).
  The contents of control.in will be repeated verbatim below
  unless switched off by setting 'verbatim_writeout .false.' .
  in the first line of control.in .
  -----------------------------------------------------------------------
  
  #===============================================================================
  # FHI-aims file: ./Runs/es/control.in
  # Created using the Atomic Simulation Environment (ASE)
  # Mon Jan 13 16:04:38 2020
  #===============================================================================
  xc                                 pbe
  relativistic                       zora scalar 1e-12
  occupation_type                    gaussian 0.0001
  load_balancing                     .true.
  KS_method                          scalapack_fast
  mixer                              pulay
  n_max_pulay                        5
  charge_mix_param                   0.4
  sc_accuracy_etot                   1e-6
  sc_accuracy_eev                    1e-4
  sc_accuracy_rho                    1e-6
  sc_iter_limit                      100
  prodbas_threshold                  1e-4
  basis_threshold                    1e-5
  override_illconditioning           .true.
  use_logsbt                         .true.
  spin                               none
  charge                             0
  #===============================================================================
  
  ################################################################################
  #
  #  FHI-aims code project
  # Volker Blum, Fritz Haber Institute Berlin, 2009
  #
  #  Suggested "tight" defaults for H atom (to be pasted into control.in file)
  #
  ################################################################################
    species        H
  #     global species definitions
      nucleus             1
      mass                1.00794
  #
      l_hartree           6
  #
      cut_pot             4.0  2.0  1.0
      basis_dep_cutoff    1e-4
  #
      radial_base         24 7.0
      radial_multiplier   2
      angular_grids       specified
        division   0.1930   50
        division   0.3175  110
        division   0.4293  194
        division   0.5066  302
        division   0.5626  434
  #      division   0.5922  590
  #      division   0.6227  974
  #      division   0.6868 1202
  #      outer_grid  770
        outer_grid  434
  ################################################################################
  #
  #  Definition of "minimal" basis
  #
  ################################################################################
  #     valence basis states
      valence      1  s   1.
  #     ion occupancy
      ion_occ      1  s   0.5
  ################################################################################
  #
  #  Suggested additional basis functions. For production calculations,
  #  uncomment them one after another (the most important basis functions are
  #  listed first).
  #
  #  Basis constructed for dimers: 0.5 A, 0.7 A, 1.0 A, 1.5 A, 2.5 A
  #
  ################################################################################
  #  "First tier" - improvements: -1014.90 meV to -62.69 meV
       hydro 2 s 2.1
       hydro 2 p 3.5
  #  "Second tier" - improvements: -12.89 meV to -1.83 meV
       hydro 1 s 0.85
       hydro 2 p 3.7
       hydro 2 s 1.2
       hydro 3 d 7
  #  "Third tier" - improvements: -0.25 meV to -0.12 meV
  #     hydro 4 f 11.2
  #     hydro 3 p 4.8
  #     hydro 4 d 9
  #     hydro 3 s 3.2
  ################################################################################
  #
  # For methods that use the localized form of the "resolution of identity" for
  # the two-electron Coulomb operator (RI_method LVL), particularly Hartree-Fock and
  # hybrid density functional calculations, the highest accuracy can be obtained by
  # uncommenting the line beginning with "for_aux"  below, thus adding an extra g radial
  # function to the construction of the product basis set for the expansion.
  # See Ref. New J. Phys. 17, 093020 (2015) for more information, particularly Figs. 1 and 6.
  #
  ################################################################################
  #
  # for_aux hydro 5 g 6.0
  ################################################################################
  #
  #  FHI-aims code project
  # Volker Blum, Fritz Haber Institute Berlin, 2009
  #
  #  Suggested "tight" defaults for C atom (to be pasted into control.in file)
  #
  ################################################################################
    species        C
  #     global species definitions
      nucleus             6
      mass                12.0107
  #
      l_hartree           6
  #
      cut_pot             4.0  2.0  1.0
      basis_dep_cutoff    1e-4
  #
      radial_base         34 7.0
      radial_multiplier   2
      angular_grids specified
        division   0.2187   50
        division   0.4416  110
        division   0.6335  194
        division   0.7727  302
        division   0.8772  434
  #      division   0.9334  590
  #      division   0.9924  770
  #      division   1.0230  974
  #      division   1.5020 1202
  #     outer_grid  974
        outer_grid  434
  ################################################################################
  #
  #  Definition of "minimal" basis
  #
  ################################################################################
  #     valence basis states
      valence      2  s   2.
      valence      2  p   2.
  #     ion occupancy
      ion_occ      2  s   1.
      ion_occ      2  p   1.
  ################################################################################
  #
  #  Suggested additional basis functions. For production calculations,
  #  uncomment them one after another (the most important basis functions are
  #  listed first).
  #
  #  Constructed for dimers: 1.0 A, 1.25 A, 1.5 A, 2.0 A, 3.0 A
  #
  ################################################################################
  #  "First tier" - improvements: -1214.57 meV to -155.61 meV
       hydro 2 p 1.7
       hydro 3 d 6
       hydro 2 s 4.9
  #  "Second tier" - improvements: -67.75 meV to -5.23 meV
       hydro 4 f 9.8
       hydro 3 p 5.2
       hydro 3 s 4.3
       hydro 5 g 14.4
       hydro 3 d 6.2
  #  "Third tier" - improvements: -2.43 meV to -0.60 meV
  #     hydro 2 p 5.6
  #     hydro 2 s 1.4
  #     hydro 3 d 4.9
  #     hydro 4 f 11.2
  #  "Fourth tier" - improvements: -0.39 meV to -0.18 meV
  #     hydro 2 p 2.1
  #     hydro 5 g 16.4
  #     hydro 4 d 13.2
  #     hydro 3 s 13.6
  #     hydro 4 f 17.6
  #  Further basis functions - improvements: -0.08 meV and below
  #     hydro 3 s 2
  #     hydro 3 p 6
  #     hydro 4 d 20
  ################################################################################
  #
  # For methods that use the localized form of the "resolution of identity" for
  # the two-electron Coulomb operator (RI_method LVL), particularly Hartree-Fock and
  # hybrid density functional calculations, the highest accuracy can be obtained by
  # uncommenting the line beginning with "for_aux"  below, thus adding an extra g radial
  # function to the construction of the product basis set for the expansion.
  # See Ref. New J. Phys. 17, 093020 (2015) for more information, particularly Figs. 1 and 6.
  #
  ################################################################################
  #
  # for_aux hydro 5 g 6.0
  
  -----------------------------------------------------------------------
  Completed first pass over input file control.in .
  -----------------------------------------------------------------------
  
  
  -----------------------------------------------------------------------
  Parsing geometry.in (first pass over file, find array dimensions only).
  The contents of geometry.in will be repeated verbatim below
  unless switched off by setting 'verbatim_writeout .false.' .
  in the first line of geometry.in .
  -----------------------------------------------------------------------
  
  #=======================================================
  # FHI-aims file: geometry.in
  # Created using the Atomic Simulation Environment (ASE)
  # Sun Jun 20 15:47:01 2021
  #=======================================================
  atom 12.3609249999999999 40.5046060000000026 54.3514949999999999 H
  atom 12.3948979999999995 41.2432990000000004 55.1522659999999973 C
  atom 11.8949890000000007 42.5259840000000011 54.9328819999999993 C
  atom 12.9378329999999995 40.8917900000000003 56.3823950000000025 C
  atom 11.2241199999999992 42.9057150000000007 53.6499379999999988 C
  atom 11.9500519999999995 43.4476450000000014 55.9750609999999966 C
  atom 13.3029940000000000 39.8780089999999987 56.5367760000000033 H
  atom 12.9913050000000005 41.8239159999999970 57.4115299999999991 C
  atom 10.0122789999999995 42.1901709999999994 53.3409630000000021 C
  atom 11.6756499999999992 43.9120440000000016 52.8061890000000034 C
  atom 11.5340030000000002 44.4433509999999998 55.8232459999999975 H
  atom 12.5097590000000007 43.1016850000000034 57.2034790000000015 C
  atom 13.4005100000000006 41.5364610000000027 58.3805809999999994 H
  atom 9.4932710000000000 41.2203090000000003 54.1930509999999970 C
  atom 9.3406439999999993 42.4557450000000003 52.0870990000000020 C
  atom 10.7998150000000006 44.3943590000000015 51.7374969999999976 C
  atom 13.0339209999999994 44.5048689999999993 52.9135289999999969 C
  atom 12.5292180000000002 43.8421220000000034 58.0038229999999970 H
  atom 8.3792130000000000 40.4258060000000015 53.8509329999999977 C
  atom 9.9679699999999993 41.0424140000000008 55.1522659999999973 H
  atom 8.2709700000000002 41.6466550000000026 51.7235980000000026 C
  atom 9.7415819999999993 43.6068319999999972 51.3094210000000004 C
  atom 11.0630690000000005 45.7583800000000025 51.2091369999999984 C
  atom 14.0851140000000008 43.8739909999999966 53.5834389999999985 C
  atom 13.3112759999999994 45.7364999999999995 52.2585860000000011 C
  atom 7.9056400000000000 39.4190019999999990 54.7216239999999985 C
  atom 7.7496650000000002 40.6404849999999982 52.5662779999999970 C
  atom 7.7806100000000002 41.8045729999999978 50.7673770000000033 H
  atom 8.9929819999999996 43.8432320000000004 50.0324639999999974 C
  atom 10.0815409999999996 46.5070619999999977 50.5661690000000021 C
  atom 12.3121310000000008 46.3800620000000023 51.4528970000000001 C
  atom 13.9512180000000008 42.8846279999999993 54.0053139999999985 H
  atom 15.3331839999999993 44.4750609999999966 53.7230660000000029 C
  atom 14.5881089999999993 46.3551689999999965 52.4266509999999997 C
  atom 6.7989059999999997 38.6354380000000006 54.3457220000000021 C
  atom 8.6668059999999993 39.1351939999999985 55.9757019999999983 C
  atom 6.6429299999999998 39.8569219999999973 52.1903760000000005 C
  atom 7.6133590000000000 44.0621920000000031 50.0194210000000012 C
  atom 9.6663960000000007 43.7871049999999968 48.8132390000000029 C
  atom 9.0805120000000006 46.1060840000000027 50.4519870000000026 H
  atom 10.3426100000000005 47.7880019999999988 50.0643239999999992 C
  atom 12.5821120000000004 47.6686130000000006 50.9106390000000033 C
  atom 16.1165990000000008 43.9494619999999969 54.2672480000000022 H
  atom 15.5731760000000001 45.7157300000000006 53.1857260000000025 C
  atom 14.8201479999999997 47.6410249999999991 51.8315789999999978 C
  atom 6.2775999999999996 37.6292680000000033 55.1884020000000035 C
  atom 6.1693579999999999 38.8501180000000019 53.0610670000000013 C
  atom 8.4101269999999992 39.7896959999999993 57.1718329999999995 C
  atom 9.7278169999999999 38.2552310000000020 55.9196799999999996 C
  atom 5.8817640000000004 40.1407299999999978 50.9362980000000007 C
  atom 6.9379569999999999 44.2337459999999965 48.8260689999999968 C
  atom 7.0691709999999999 44.1140389999999982 50.9589629999999971 H
  atom 8.9850230000000000 43.9418519999999972 47.6153970000000015 C
  atom 10.7425110000000004 43.6226869999999991 48.8123840000000015 H
  atom 9.5476340000000004 48.3356399999999979 49.5588440000000006 H
  atom 11.5855569999999997 48.3472149999999985 50.2007430000000028 C
  atom 13.8654250000000001 48.2698409999999996 51.1257459999999995 C
  atom 16.5386190000000006 46.2045450000000031 53.3219319999999968 H
  atom 15.7922469999999997 48.1084359999999975 51.9990030000000019 H
  atom 5.2079269999999998 36.8201779999999985 54.8249009999999970 C
  atom 6.7679600000000004 37.4713509999999985 56.1446230000000028 H
  atom 5.0552989999999998 38.0556139999999985 52.7189490000000021 C
  atom 7.5887450000000003 40.5017520000000033 57.2336290000000005 H
  atom 9.2260679999999997 39.5743819999999999 58.2813659999999985 C
  atom 9.9515200000000004 37.7416819999999973 54.9869800000000026 H
  atom 10.5411640000000002 38.0511750000000006 57.0217290000000006 C
  atom 4.8207529999999998 41.0206919999999968 50.9923199999999994 C
  atom 6.1384439999999998 39.4862279999999970 49.7401669999999996 C
  atom 5.8676149999999998 44.4325699999999983 48.8418920000000014 H
  atom 7.6227179999999999 44.1639830000000018 47.6186050000000023 C
  atom 9.5328689999999998 43.9033230000000003 46.6737170000000035 H
  atom 11.7985480000000003 49.3351510000000033 49.7916979999999967 H
  atom 14.0296740000000000 49.2691939999999988 50.7261090000000010 H
  atom 4.8069889999999997 35.6690919999999991 55.6025789999999986 C
  atom 4.5362920000000004 37.0857529999999969 53.5710369999999969 C
  atom 4.5805999999999996 38.2335089999999980 51.7597340000000017 H
  atom 9.0381090000000004 40.1289969999999983 59.1990989999999968 H
  atom 10.2875099999999993 38.7067869999999985 58.2054589999999976 C
  atom 11.3944410000000005 37.3833539999999971 56.9310680000000033 H
  atom 4.0074059999999996 41.2247490000000028 49.8902709999999985 C
  atom 4.5970500000000003 41.5342419999999990 51.9250200000000035 H
  atom 5.3225030000000002 39.7015409999999989 48.6306340000000006 C
  atom 6.9598250000000004 38.7741710000000026 49.6783709999999985 H
  atom 7.0877210000000002 44.3101669999999999 46.6820560000000029 H
  atom 3.7487550000000001 34.8815650000000019 55.1745030000000014 C
  atom 5.5555880000000002 35.4326909999999984 56.8795360000000016 C
  atom 3.3244500000000001 36.3702079999999981 53.2620620000000002 C
  atom 10.9427040000000009 38.5663100000000014 59.0637479999999968 H
  atom 3.1541290000000002 41.8925690000000017 49.9809320000000028 H
  atom 4.2610599999999996 40.5691369999999978 48.7065410000000014 C
  atom 5.5104620000000004 39.1469269999999980 47.7129010000000022 H
  atom 3.4855019999999999 33.5175430000000034 55.7028630000000007 C
  atom 2.8729209999999998 35.3638800000000018 54.1058110000000028 C
  atom 4.8821740000000000 35.4888180000000020 58.0987610000000032 C
  atom 6.9352119999999999 35.2137310000000028 56.8925789999999978 C
  atom 2.6535810000000000 36.7499400000000023 51.9791179999999997 C
  atom 3.6058659999999998 40.7096140000000020 47.8482520000000022 H
  atom 2.2364389999999998 32.8958620000000010 55.4591029999999989 C
  atom 4.4670290000000001 32.7688610000000011 56.3458309999999969 C
  atom 1.5146489999999999 34.7710539999999995 53.9984710000000021 C
  atom 3.8060589999999999 35.6532369999999972 58.0996159999999975 H
  atom 5.5635479999999999 35.3340719999999990 59.2966029999999975 C
  atom 7.4793989999999999 35.1618840000000006 55.9530370000000019 H
  atom 7.6106129999999999 35.0421779999999998 58.0859310000000022 C
  atom 2.5985179999999999 35.8282779999999974 50.9369390000000024 C
  atom 2.1536719999999998 38.0326239999999984 51.7597340000000017 C
  atom 1.9664590000000000 31.6073109999999993 56.0013610000000028 C
  atom 1.2372939999999999 33.5394229999999993 54.6534139999999979 C
  atom 4.2059610000000003 31.4879210000000000 56.8476759999999999 C
  atom 5.4680590000000002 33.1698390000000032 56.4600129999999965 H
  atom 0.4634560000000000 35.4019320000000022 53.3285610000000005 C
  atom 5.0157020000000001 35.3725999999999985 60.2382830000000027 H
  atom 6.9258519999999999 35.1119410000000016 59.2933949999999967 C
  atom 8.6809550000000009 34.8433539999999979 58.0701079999999976 H
  atom 2.0388120000000001 36.1742380000000026 49.7085209999999975 C
  atom 3.0145670000000000 34.8325719999999990 51.0887540000000016 H
  atom 1.6107370000000001 38.3841340000000031 50.5296049999999966 C
  atom 2.1876449999999998 38.7713170000000034 52.5605049999999991 H
  atom 0.6831460000000000 31.0060819999999993 55.7862539999999996 C
  atom 2.9630130000000001 30.9287090000000013 56.7112570000000034 C
  atom -0.0395380000000000 32.9207540000000023 54.4853489999999994 C
  atom 5.0009370000000004 30.9402830000000009 57.3531559999999985 H
  atom -0.7846140000000000 34.8008620000000022 53.1889340000000033 C
  atom 0.5973530000000000 36.3912959999999970 52.9066860000000005 H
  atom 7.4608489999999996 34.9657559999999989 60.2299440000000033 H
  atom 2.0193530000000002 35.4338010000000025 48.9081770000000020 H
  atom 1.5572649999999999 37.4520070000000018 49.5004700000000000 C
  atom 1.2455760000000000 39.3979140000000001 50.3752240000000029 H
  atom 0.5188960000000000 30.0067300000000010 56.1858909999999980 H
  atom -0.2715780000000000 31.6348990000000008 55.0804210000000012 C
  atom 2.7500220000000000 29.9407719999999991 57.1203020000000024 H
  atom -1.0246059999999999 33.5601940000000027 53.7262739999999965 C
  atom -1.5680289999999999 35.3264610000000019 52.6447519999999969 H
  atom 1.1480610000000000 37.7394620000000032 48.5314189999999996 H
  atom -1.2436769999999999 31.1674879999999987 54.9129969999999972 H
  atom -1.9900490000000000 33.0713780000000028 53.5900680000000023 H
  
  -----------------------------------------------------------------------
  Completed first pass over input file geometry.in .
  -----------------------------------------------------------------------
  

  Basic array size parameters:
  | Number of species                 :        2
  | Number of atoms                   :      136
  | Max. basis fn. angular momentum   :        4
  | Max. atomic/ionic basis occupied n:        2
  | Max. number of basis fn. types    :        2
  | Max. radial fns per species/type  :        8
  | Max. logarithmic grid size        :     1277
  | Max. radial integration grid size :       69
  | Max. angular integration grid size:      434
  | Max. angular grid division number :        8
  | Radial grid for Hartree potential :     1277
  | Number of spin channels           :        1

------------------------------------------------------------
          Reading file control.in.
------------------------------------------------------------
  XC: Using PBE gradient-corrected functionals.
  Scalar relativistic treatment of kinetic energy: ZORA.
  Threshold value for ZORA:   0.100000E-11
  Occupation type: Gaussian broadening, width =   0.100000E-03 eV.
  Since 'load_balancing .true.' is present in control.in, automatically turning on 'use_local_index .true.'.
  Using load balancing for integrations.
  Kohn-Sham electronic structure solved by the ELSI library.
  Using pulay charge density mixing.
  Pulay mixing - number of memorized iterations:    5
  Charge density mixing - mixing parameter:     0.4000
  Convergence accuracy of total energy:  0.1000E-05
  Convergence accuracy of sum of eigenvalues:  0.1000E-03
  Convergence accuracy of self-consistent charge density:  0.1000E-05
  Maximum number of s.-c. iterations  :   100
  * Ignoring prodbas_threshold
  Threshold for basis singularities:  0.1000E-04
  override_illconditioning: Explicitly overriding any built-in checks for an ill-conditioned overlap matrix.
  *** WARNING: If you use this flag, you should really know what you are doing.
  *** DO NOT keep this flag set by default in all your control.in files.
  Using 1D integrations for auxiliary 2-center integrals.
  Spin treatment: No spin polarisation.
  Charge =   0.000000E+00: Neutral system requested explicitly.
 
  Reading configuration options for species H                   .
  | Found nuclear charge :   1.0000
  | Found atomic mass :    1.00794000000000      amu
  | Found l_max for Hartree potential  :   6
  | Found cutoff potl. onset [A], width [A], scale factor :    4.00000    2.00000    1.00000
  | Threshold for basis-dependent cutoff potential is   0.100000E-03
  | Found data for basic radial integration grid :    24 points, outermost radius =    7.000 A
  | Found multiplier for basic radial grid :   2
  | Found angular grid specification: user-specified.
  | Specified grid contains     6 separate shells.
  | Check grid settings after all constraints further below.
  | Found free-atom valence shell :  1 s   1.000
  | No ionic wave fns used. Skipping ion_occ.
  | Found hydrogenic basis function :  2 s   2.100
  | Found hydrogenic basis function :  2 p   3.500
  | Found hydrogenic basis function :  1 s   0.850
  | Found hydrogenic basis function :  2 p   3.700
  | Found hydrogenic basis function :  2 s   1.200
  | Found hydrogenic basis function :  3 d   7.000
  Species H                   : Missing cutoff potential type.
  Defaulting to exp(1/x)/(1-x)^2 type cutoff potential.
  Species H : No 'logarithmic' tag. Using default grid for free atom:
  | Default logarithmic grid data [bohr] : 0.1000E-03 0.1000E+03 0.1012E+01
  Species H : On-site basis accuracy parameter (for Gram-Schmidt orthonormalisation) not specified.
  Using default value basis_acc =  0.1000000E-03.
  Species H                   : Using default innermost maximum threshold i_radial=  2 for radial functions.
  Species H                   : Default cutoff onset for free atom density etc. : 0.40000000E+01 AA.
  Species H                   : Basic radial grid will be enhanced according to radial_multiplier =   2, to contain    49 grid points.
 
  Reading configuration options for species C                   .
  | Found nuclear charge :   6.0000
  | Found atomic mass :    12.0107000000000      amu
  | Found l_max for Hartree potential  :   6
  | Found cutoff potl. onset [A], width [A], scale factor :    4.00000    2.00000    1.00000
  | Threshold for basis-dependent cutoff potential is   0.100000E-03
  | Found data for basic radial integration grid :    34 points, outermost radius =    7.000 A
  | Found multiplier for basic radial grid :   2
  | Found angular grid specification: user-specified.
  | Specified grid contains     6 separate shells.
  | Check grid settings after all constraints further below.
  | Found free-atom valence shell :  2 s   2.000
  | Found free-atom valence shell :  2 p   2.000
  | No ionic wave fns used. Skipping ion_occ.
  | No ionic wave fns used. Skipping ion_occ.
  | Found hydrogenic basis function :  2 p   1.700
  | Found hydrogenic basis function :  3 d   6.000
  | Found hydrogenic basis function :  2 s   4.900
  | Found hydrogenic basis function :  4 f   9.800
  | Found hydrogenic basis function :  3 p   5.200
  | Found hydrogenic basis function :  3 s   4.300
  | Found hydrogenic basis function :  5 g  14.400
  | Found hydrogenic basis function :  3 d   6.200
  Species C                   : Missing cutoff potential type.
  Defaulting to exp(1/x)/(1-x)^2 type cutoff potential.
  Species C : No 'logarithmic' tag. Using default grid for free atom:
  | Default logarithmic grid data [bohr] : 0.1000E-03 0.1000E+03 0.1012E+01
  Species C : On-site basis accuracy parameter (for Gram-Schmidt orthonormalisation) not specified.
  Using default value basis_acc =  0.1000000E-03.
  Species C                   : Using default innermost maximum threshold i_radial=  2 for radial functions.
  Species C                   : Default cutoff onset for free atom density etc. : 0.40000000E+01 AA.
  Species C                   : Basic radial grid will be enhanced according to radial_multiplier =   2, to contain    69 grid points.
 
  Finished reading input file 'control.in'. Consistency checks are next.
 
  MPI_IN_PLACE appears to work with this MPI implementation.
  | Keeping use_mpi_in_place .true. (see manual).
  Target number of points in a grid batch is not set. Defaulting to  100
  Method for grid partitioning is not set. Defaulting to parallel hash+maxmin partitioning.
  Batch size limit is not set. Defaulting to    200
  By default, will store active basis functions for each batch.
  If in need of memory, prune_basis_once .false. can be used to disable this option.
  communication_type for Hartree potential was not specified.
  Defaulting to calc_hartree .
  Pulay mixer: Number of initial linear mixing iterations not set.
  Defaulting to    0 iterations.
  Work space size for distributed Hartree potential not set.
  Defaulting to   0.200000E+03 MB.
  Algorithm-dependent basis array size parameters:
  | n_max_pulay                         :        5
  Presetting      1001 iterations before the initial mixing cycle
  is restarted anyway using the sc_init_iter criterion / keyword.
  Presetting a factor      1.000 between actual scf density residual
  and density convergence criterion sc_accuracy_rho below which sc_init_iter
  takes no effect.
  Calculation of forces was not defined in control.in. No forces will be calculated.
  Geometry relaxation not requested: no relaxation will be performed.
  No accuracy limit for integral partition fn. given. Defaulting to  0.1000E-14.
  No threshold value for u(r) in integrations given. Defaulting to  0.1000E-05.
  No accuracy for occupation numbers given. Defaulting to  0.1000E-12.
  No threshold value for occupation numbers given. Defaulting to  0.0000E+00.
  No accuracy for fermi level given. Defaulting to  0.1000E-19.
  Maximum # of iterations to find E_F not set. Defaulting to  200.
  Will not use alltoall communication since running on < 1024 CPUs.
  partition_type (choice of integration weights) for integrals was not specified.
  | Using a version of the partition function of Stratmann and coworkers ('stratmann_sparse').
  | At each grid point, the set of atoms used to build the partition table is smoothly restricted to
  | only those atoms whose free-atom density would be non-zero at that grid point.
  Partitioning for Hartree potential was not defined. Using partition_type for integrals.
  | Adjusted default value of keyword multip_moments_threshold to:       0.10000000E-11
  | This value may affect high angular momentum components of the Hartree potential in periodic systems.
  No q(lm)/r^(l+1) cutoff set for long-range Hartree potential.
  | Using default value of  0.100000E-09 .
  | Verify using the multipole_threshold keyword.
  Defaulting to new monopole extrapolation.
  Density update method: automatic selection selected.
 * Warning: use_local_index and/or load_balancing needs packed_matrix_format = index
 * Changing the default setting to packed_matrix_format = index
------------------------------------------------------------


------------------------------------------------------------
          Reading geometry description geometry.in.
------------------------------------------------------------
  Input structure read successfully.
  The structure contains      136 atoms,  and a total of        566.000 electrons.

  Input geometry:
  | No unit cell requested.
  | Atomic structure:
  |       Atom                x [A]            y [A]            z [A]
  |    1: Species H            12.36092500       40.50460600       54.35149500
  |    2: Species C            12.39489800       41.24329900       55.15226600
  |    3: Species C            11.89498900       42.52598400       54.93288200
  |    4: Species C            12.93783300       40.89179000       56.38239500
  |    5: Species C            11.22412000       42.90571500       53.64993800
  |    6: Species C            11.95005200       43.44764500       55.97506100
  |    7: Species H            13.30299400       39.87800900       56.53677600
  |    8: Species C            12.99130500       41.82391600       57.41153000
  |    9: Species C            10.01227900       42.19017100       53.34096300
  |   10: Species C            11.67565000       43.91204400       52.80618900
  |   11: Species H            11.53400300       44.44335100       55.82324600
  |   12: Species C            12.50975900       43.10168500       57.20347900
  |   13: Species H            13.40051000       41.53646100       58.38058100
  |   14: Species C             9.49327100       41.22030900       54.19305100
  |   15: Species C             9.34064400       42.45574500       52.08709900
  |   16: Species C            10.79981500       44.39435900       51.73749700
  |   17: Species C            13.03392100       44.50486900       52.91352900
  |   18: Species H            12.52921800       43.84212200       58.00382300
  |   19: Species C             8.37921300       40.42580600       53.85093300
  |   20: Species H             9.96797000       41.04241400       55.15226600
  |   21: Species C             8.27097000       41.64665500       51.72359800
  |   22: Species C             9.74158200       43.60683200       51.30942100
  |   23: Species C            11.06306900       45.75838000       51.20913700
  |   24: Species C            14.08511400       43.87399100       53.58343900
  |   25: Species C            13.31127600       45.73650000       52.25858600
  |   26: Species C             7.90564000       39.41900200       54.72162400
  |   27: Species C             7.74966500       40.64048500       52.56627800
  |   28: Species H             7.78061000       41.80457300       50.76737700
  |   29: Species C             8.99298200       43.84323200       50.03246400
  |   30: Species C            10.08154100       46.50706200       50.56616900
  |   31: Species C            12.31213100       46.38006200       51.45289700
  |   32: Species H            13.95121800       42.88462800       54.00531400
  |   33: Species C            15.33318400       44.47506100       53.72306600
  |   34: Species C            14.58810900       46.35516900       52.42665100
  |   35: Species C             6.79890600       38.63543800       54.34572200
  |   36: Species C             8.66680600       39.13519400       55.97570200
  |   37: Species C             6.64293000       39.85692200       52.19037600
  |   38: Species C             7.61335900       44.06219200       50.01942100
  |   39: Species C             9.66639600       43.78710500       48.81323900
  |   40: Species H             9.08051200       46.10608400       50.45198700
  |   41: Species C            10.34261000       47.78800200       50.06432400
  |   42: Species C            12.58211200       47.66861300       50.91063900
  |   43: Species H            16.11659900       43.94946200       54.26724800
  |   44: Species C            15.57317600       45.71573000       53.18572600
  |   45: Species C            14.82014800       47.64102500       51.83157900
  |   46: Species C             6.27760000       37.62926800       55.18840200
  |   47: Species C             6.16935800       38.85011800       53.06106700
  |   48: Species C             8.41012700       39.78969600       57.17183300
  |   49: Species C             9.72781700       38.25523100       55.91968000
  |   50: Species C             5.88176400       40.14073000       50.93629800
  |   51: Species C             6.93795700       44.23374600       48.82606900
  |   52: Species H             7.06917100       44.11403900       50.95896300
  |   53: Species C             8.98502300       43.94185200       47.61539700
  |   54: Species H            10.74251100       43.62268700       48.81238400
  |   55: Species H             9.54763400       48.33564000       49.55884400
  |   56: Species C            11.58555700       48.34721500       50.20074300
  |   57: Species C            13.86542500       48.26984100       51.12574600
  |   58: Species H            16.53861900       46.20454500       53.32193200
  |   59: Species H            15.79224700       48.10843600       51.99900300
  |   60: Species C             5.20792700       36.82017800       54.82490100
  |   61: Species H             6.76796000       37.47135100       56.14462300
  |   62: Species C             5.05529900       38.05561400       52.71894900
  |   63: Species H             7.58874500       40.50175200       57.23362900
  |   64: Species C             9.22606800       39.57438200       58.28136600
  |   65: Species H             9.95152000       37.74168200       54.98698000
  |   66: Species C            10.54116400       38.05117500       57.02172900
  |   67: Species C             4.82075300       41.02069200       50.99232000
  |   68: Species C             6.13844400       39.48622800       49.74016700
  |   69: Species H             5.86761500       44.43257000       48.84189200
  |   70: Species C             7.62271800       44.16398300       47.61860500
  |   71: Species H             9.53286900       43.90332300       46.67371700
  |   72: Species H            11.79854800       49.33515100       49.79169800
  |   73: Species H            14.02967400       49.26919400       50.72610900
  |   74: Species C             4.80698900       35.66909200       55.60257900
  |   75: Species C             4.53629200       37.08575300       53.57103700
  |   76: Species H             4.58060000       38.23350900       51.75973400
  |   77: Species H             9.03810900       40.12899700       59.19909900
  |   78: Species C            10.28751000       38.70678700       58.20545900
  |   79: Species H            11.39444100       37.38335400       56.93106800
  |   80: Species C             4.00740600       41.22474900       49.89027100
  |   81: Species H             4.59705000       41.53424200       51.92502000
  |   82: Species C             5.32250300       39.70154100       48.63063400
  |   83: Species H             6.95982500       38.77417100       49.67837100
  |   84: Species H             7.08772100       44.31016700       46.68205600
  |   85: Species C             3.74875500       34.88156500       55.17450300
  |   86: Species C             5.55558800       35.43269100       56.87953600
  |   87: Species C             3.32445000       36.37020800       53.26206200
  |   88: Species H            10.94270400       38.56631000       59.06374800
  |   89: Species H             3.15412900       41.89256900       49.98093200
  |   90: Species C             4.26106000       40.56913700       48.70654100
  |   91: Species H             5.51046200       39.14692700       47.71290100
  |   92: Species C             3.48550200       33.51754300       55.70286300
  |   93: Species C             2.87292100       35.36388000       54.10581100
  |   94: Species C             4.88217400       35.48881800       58.09876100
  |   95: Species C             6.93521200       35.21373100       56.89257900
  |   96: Species C             2.65358100       36.74994000       51.97911800
  |   97: Species H             3.60586600       40.70961400       47.84825200
  |   98: Species C             2.23643900       32.89586200       55.45910300
  |   99: Species C             4.46702900       32.76886100       56.34583100
  |  100: Species C             1.51464900       34.77105400       53.99847100
  |  101: Species H             3.80605900       35.65323700       58.09961600
  |  102: Species C             5.56354800       35.33407200       59.29660300
  |  103: Species H             7.47939900       35.16188400       55.95303700
  |  104: Species C             7.61061300       35.04217800       58.08593100
  |  105: Species C             2.59851800       35.82827800       50.93693900
  |  106: Species C             2.15367200       38.03262400       51.75973400
  |  107: Species C             1.96645900       31.60731100       56.00136100
  |  108: Species C             1.23729400       33.53942300       54.65341400
  |  109: Species C             4.20596100       31.48792100       56.84767600
  |  110: Species H             5.46805900       33.16983900       56.46001300
  |  111: Species C             0.46345600       35.40193200       53.32856100
  |  112: Species H             5.01570200       35.37260000       60.23828300
  |  113: Species C             6.92585200       35.11194100       59.29339500
  |  114: Species H             8.68095500       34.84335400       58.07010800
  |  115: Species C             2.03881200       36.17423800       49.70852100
  |  116: Species H             3.01456700       34.83257200       51.08875400
  |  117: Species C             1.61073700       38.38413400       50.52960500
  |  118: Species H             2.18764500       38.77131700       52.56050500
  |  119: Species C             0.68314600       31.00608200       55.78625400
  |  120: Species C             2.96301300       30.92870900       56.71125700
  |  121: Species C            -0.03953800       32.92075400       54.48534900
  |  122: Species H             5.00093700       30.94028300       57.35315600
  |  123: Species C            -0.78461400       34.80086200       53.18893400
  |  124: Species H             0.59735300       36.39129600       52.90668600
  |  125: Species H             7.46084900       34.96575600       60.22994400
  |  126: Species H             2.01935300       35.43380100       48.90817700
  |  127: Species C             1.55726500       37.45200700       49.50047000
  |  128: Species H             1.24557600       39.39791400       50.37522400
  |  129: Species H             0.51889600       30.00673000       56.18589100
  |  130: Species C            -0.27157800       31.63489900       55.08042100
  |  131: Species H             2.75002200       29.94077200       57.12030200
  |  132: Species C            -1.02460600       33.56019400       53.72627400
  |  133: Species H            -1.56802900       35.32646100       52.64475200
  |  134: Species H             1.14806100       37.73946200       48.53141900
  |  135: Species H            -1.24367700       31.16748800       54.91299700
  |  136: Species H            -1.99004900       33.07137800       53.59006800
  |

  | The smallest distance between any two atoms is         1.08385691 AA.
  |
  | The first atom of this pair is atom number                     24 .
  | The second atom of this pair is atom number                    32 .

  Number of empty states per atom not set in control.in - providing a guess from actual geometry.
  | Total number of empty states used during s.c.f. cycle:      333
  If you use a very high smearing, use empty_states (per atom!) in control.in to increase this value.

  Structure-dependent array size parameters: 
  | Maximum number of distinct radial functions  :       18
  | Maximum number of basis functions            :     4104
  | Number of Kohn-Sham states (occupied + empty):      616
------------------------------------------------------------

------------------------------------------------------------
          Preparing all fixed parts of the calculation.
------------------------------------------------------------
  Determining machine precision:
    2.225073858507201E-308
  Setting up grids for atomic and cluster calculations.

  Creating wave function, potential, and density for free atoms.

  Species: H

  List of occupied orbitals and eigenvalues:
    n    l              occ      energy [Ha]    energy [eV]
    1    0           1.0000        -0.238386        -6.4868


  Species: C

  List of occupied orbitals and eigenvalues:
    n    l              occ      energy [Ha]    energy [eV]
    1    0           2.0000       -10.049212      -273.4530
    2    0           2.0000        -0.504761       -13.7352
    2    1           2.0000        -0.193631        -5.2690

  Creating fixed part of basis set: Ionic, confined, hydrogenic.
 
  H                    hydrogenic:
 
  List of hydrogenic basis orbitals: 
    n    l      effective z      eigenvalue [eV]  inner max. [A]     outer max. [A]     outer radius [A]   
    2    0         2.100000       -14.9965           0.193243           1.317208           5.373006
    2    1         3.500000       -41.6672           0.602369           0.602369           4.056063
    1    0         0.850000        -9.8292           0.624871           0.624871           5.373006
    2    1         3.700000       -46.5653           0.573622           0.573622           3.910002
    2    0         1.200000        -4.5995           0.334980           2.228188           5.505995
    3    2         7.000000       -74.0753           0.680699           0.680699           3.769201
 
 
  C                    hydrogenic:
 
  List of hydrogenic basis orbitals: 
    n    l      effective z      eigenvalue [eV]  inner max. [A]     outer max. [A]     outer radius [A]   
    2    1         1.700000        -9.8152           1.245706           1.245706           5.401630
    3    2         6.000000       -54.4226           0.792453           0.792453           4.178599
    2    0         4.900000       -81.6681           0.082559           0.562749           3.353238
    4    3         9.800000       -81.6681           0.863254           0.863254           4.028125
    3    1         5.200000       -40.8774           0.305389           1.215618           4.898362
    3    0         4.300000       -27.9508           0.091041           1.610311           5.401630
    5    4        14.400000      -112.8510           0.917666           0.917666           3.883070
    3    2         6.200000       -58.1113           0.763917           0.763917           4.077671
 

  Adding cutoff potential to free-atom effective potential.
  Creating atomic-like basis functions for current effective potential.

  Species H                   :

  List of atomic basis orbitals and eigenvalues:
    n    l      energy [Ha]    energy [eV]    outer radius [A]
    1    0        -0.238386        -6.4868       5.373006


  Species C                   :

  List of atomic basis orbitals and eigenvalues:
    n    l      energy [Ha]    energy [eV]    outer radius [A]
    1    0       -10.049212      -273.4530       1.934409
    2    0        -0.504761       -13.7352       5.271162
    2    1        -0.193631        -5.2690       5.401630

  Assembling full basis from fixed parts.
  | Species H :   atomic orbital   1 s accepted.
  | Species H :    hydro orbital   2 s accepted.
  | Species H :    hydro orbital   1 s accepted.
  | Species H :    hydro orbital   2 s accepted.
  | Species H :    hydro orbital   2 p accepted.
  | Species H :    hydro orbital   2 p accepted.
  | Species H :    hydro orbital   3 d accepted.
  | Species C :   atomic orbital   1 s accepted.
  | Species C :    hydro orbital   2 s accepted.
  | Species C :   atomic orbital   2 s accepted.
  | Species C :    hydro orbital   3 s accepted.
  | Species C :    hydro orbital   3 p accepted.
  | Species C :   atomic orbital   2 p accepted.
  | Species C :    hydro orbital   2 p accepted.
  | Species C :    hydro orbital   3 d accepted.
  | Species C :    hydro orbital   3 d accepted.
  | Species C :    hydro orbital   4 f accepted.
  | Species C :    hydro orbital   5 g accepted.
 
  Basis size parameters after reduction:
  | Total number of radial functions:       18
  | Total number of basis functions :     4104
 
  Per-task memory consumption for arrays in subroutine allocate_ext:
  |           4.507416MB.
  Testing on-site integration grid accuracy.
  |  Species  Function  <phi|h_atom|phi> (log., in eV)  <phi|h_atom|phi> (rad., in eV)
           1        1                 -6.4870767962                 -6.4871688290
           1        2                 13.5032046589                 13.5028982997
           1        3                 32.8195184817                 32.8119941656
           1        4                 33.8513856511                 33.7670005767 ***
           1        5                 28.8544614965                 28.8544615203
           1        6                 59.6326952547                 59.6327656460
           1        7                 60.2719308513                 60.2719305949
           2        8               -273.4529726040               -273.4529710464
           2        9                -10.7721037319                -10.7721022101
           2       10                 17.6044132601                 17.6044162063
           2       11                 53.7706460658                 53.7706913770
           2       12                 15.0973290362                 15.0973256030
           2       13                  3.8545134692                  3.8545724687
           2       14                 12.1156992592                 12.1182024431
           2       15                 29.4352039302                 29.4352041816
           2       16                 54.8741144708                 54.8740268729
           2       17                 59.3556032049                 59.3556031382
           2       18                 93.4551837154                 93.4551838009
 * Note: Onsite integrals marked "***" above are less accurate than
 * onsite_accuracy_threshold =    0.03000 eV. Usually, this is harmless.
 * When in doubt, tighten the "radial" and/or "radial_multiplier" flags to check.

  Preparing densities etc. for the partition functions (integrals / Hartree potential).

  Preparations completed.
  max(cpu_time)          :      0.199 s.
  Wall clock time (cpu1) :      0.206 s.
------------------------------------------------------------

------------------------------------------------------------
          Begin self-consistency loop: Initialization.

          Date     :  20210620, Time     :  172446.648
------------------------------------------------------------

  Initializing index lists of integration centers etc. from given atomic structure:
  | Number of centers in hartree potential         :       136
  | Number of centers in hartree multipole         :       136
  | Number of centers in electron density summation:       136
  | Number of centers in basis integrals           :       136
  | Number of centers in integrals                 :       136
  | Number of centers in hamiltonian               :       136
  * Using 56 tasks for Scalapack Eigenvalue solver.
  Detailed listing of tasks and assigned k-points:
  (for non-periodic systems, the "k-point" denotes an internal label only)
   Task     0 k-point     1 on d024
   Task     1 k-point     1 on d024
   Task     2 k-point     1 on d024
   Task     3 k-point     1 on d024
   Task     4 k-point     1 on d024
   Task     5 k-point     1 on d024
   Task     6 k-point     1 on d024
   Task     7 k-point     1 on d024
   Task     8 k-point     1 on d024
   Task     9 k-point     1 on d024
   Task    10 k-point     1 on d024
   Task    11 k-point     1 on d024
   Task    12 k-point     1 on d024
   Task    13 k-point     1 on d024
   Task    14 k-point     1 on d024
   Task    15 k-point     1 on d024
   Task    16 k-point     1 on d024
   Task    17 k-point     1 on d024
   Task    18 k-point     1 on d024
   Task    19 k-point     1 on d024
   Task    20 k-point     1 on d024
   Task    21 k-point     1 on d024
   Task    22 k-point     1 on d024
   Task    23 k-point     1 on d024
   Task    24 k-point     1 on d024
   Task    25 k-point     1 on d024
   Task    26 k-point     1 on d024
   Task    27 k-point     1 on d024
   Task    28 k-point     1 on d024
   Task    29 k-point     1 on d024
   Task    30 k-point     1 on d024
   Task    31 k-point     1 on d024
   Task    32 k-point     1 on d024
   Task    33 k-point     1 on d024
   Task    34 k-point     1 on d024
   Task    35 k-point     1 on d024
   Task    36 k-point     1 on d024
   Task    37 k-point     1 on d024
   Task    38 k-point     1 on d024
   Task    39 k-point     1 on d024
   Task    40 k-point     1 on d024
   Task    41 k-point     1 on d024
   Task    42 k-point     1 on d024
   Task    43 k-point     1 on d024
   Task    44 k-point     1 on d024
   Task    45 k-point     1 on d024
   Task    46 k-point     1 on d024
   Task    47 k-point     1 on d024
   Task    48 k-point     1 on d024
   Task    49 k-point     1 on d024
   Task    50 k-point     1 on d024
   Task    51 k-point     1 on d024
   Task    52 k-point     1 on d024
   Task    53 k-point     1 on d024
   Task    54 k-point     1 on d024
   Task    55 k-point     1 on d024
  Tasks:    56 split into      8 X      7 BLACS grid
  Calculating block size based on n_basis =         4104 max_nprow =            8 max_npcol =            7
  ScaLAPACK block size set to:           16
  Allocating        2.463 MB for ovlp
  Allocating        2.463 MB for ham
  Allocating        2.463 MB for eigenvec
  Required Scalapack workspace - INTEGER:            1 REAL:             1
  Partitioning the integration grid into batches with parallel hashing+maxmin method.
  | Number of batches:    20803
  | Maximal batch size:     197
  | Minimal batch size:       2
  | Average batch size:     109.465
  | Standard deviation of batch sizes:      31.513

  Integration load balanced across     56 MPI tasks.
  Work distribution over tasks is as follows:
  Task      0 has      40715 integration points.
  Task      1 has      40692 integration points.
  Task      2 has      40688 integration points.
  Task      3 has      40812 integration points.
  Task      4 has      40513 integration points.
  Task      5 has      40640 integration points.
  Task      6 has      40622 integration points.
  Task      7 has      40844 integration points.
  Task      8 has      40580 integration points.
  Task      9 has      40569 integration points.
  Task     10 has      40716 integration points.
  Task     11 has      40623 integration points.
  Task     12 has      40649 integration points.
  Task     13 has      40641 integration points.
  Task     14 has      40702 integration points.
  Task     15 has      40772 integration points.
  Task     16 has      40585 integration points.
  Task     17 has      40685 integration points.
  Task     18 has      40682 integration points.
  Task     19 has      40689 integration points.
  Task     20 has      40593 integration points.
  Task     21 has      40772 integration points.
  Task     22 has      40718 integration points.
  Task     23 has      40531 integration points.
  Task     24 has      40698 integration points.
  Task     25 has      40589 integration points.
  Task     26 has      40730 integration points.
  Task     27 has      40554 integration points.
  Task     28 has      40690 integration points.
  Task     29 has      40699 integration points.
  Task     30 has      40628 integration points.
  Task     31 has      40737 integration points.
  Task     32 has      40603 integration points.
  Task     33 has      40747 integration points.
  Task     34 has      40578 integration points.
  Task     35 has      40705 integration points.
  Task     36 has      40670 integration points.
  Task     37 has      40662 integration points.
  Task     38 has      40686 integration points.
  Task     39 has      40620 integration points.
  Task     40 has      40732 integration points.
  Task     41 has      40564 integration points.
  Task     42 has      40705 integration points.
  Task     43 has      40712 integration points.
  Task     44 has      40610 integration points.
  Task     45 has      40816 integration points.
  Task     46 has      40615 integration points.
  Task     47 has      40681 integration points.
  Task     48 has      40565 integration points.
  Task     49 has      40682 integration points.
  Task     50 has      40698 integration points.
  Task     51 has      40643 integration points.
  Task     52 has      40775 integration points.
  Task     53 has      40543 integration points.
  Task     54 has      40721 integration points.
  Task     55 has      40517 integration points.
  Initializing partition tables, free-atom densities, potentials, etc. across the integration grid (initialize_grid_storage).
  | initialize_grid_storage: Actual outermost partition radius vs. multipole_radius_free
  | (-- VB: in principle, multipole_radius_free should be larger, hence this output)
  | Species        1: Confinement radius =              6.000000000000000 AA, multipole_radius_free =              6.071692442739658 AA.
  | Species        1: outer_partition_radius set to              6.071692442739658 AA .
  | Species        2: Confinement radius =              6.000000000000000 AA, multipole_radius_free =              6.029870734432609 AA.
  | Species        2: outer_partition_radius set to              6.029870734432609 AA .
  | The sparse table of interatomic distances needs    192.8840 kbyte instead of   147.9680 kbyte of memory.
  | Using the partition_type stratmann_smoother will reduce your memory usage.
  | Net number of integration points:  2277208
  | of which are non-zero points    :  1762462
  Renormalizing the initial density to the exact electron count on the 3D integration grid.
  | Initial density: Formal number of electrons (from input files) :     566.0000000000
  | Integrated number of electrons on 3D grid     :     566.0009598234
  | Charge integration error                      :       0.0009598234
  | Normalization factor for density and gradient :       0.9999983042
  Obtaining max. number of non-zero basis functions in each batch (get_n_compute_maxes).
  | Maximal number of non-zero basis functions:     1170
  Selecting the method for density update.
  Loop over occupied states selected for charge density update.
  Hamiltonian matrix size:
  | Size of matrix non-packed:               8423460
  | Size of matrix packed:         4549149
  Allocating       20.225 MB for KS_eigenvector
  use_local_index: Max. local matrix size =      2153325
  Task:     0 matrix size:     718764
  Task:     1 matrix size:     875652
  Task:     2 matrix size:    1084968
  Task:     3 matrix size:     546685
  Task:     4 matrix size:     827786
  Task:     5 matrix size:     943477
  Task:     6 matrix size:    1407462
  Task:     7 matrix size:     553117
  Task:     8 matrix size:     368586
  Task:     9 matrix size:     554712
  Task:    10 matrix size:    1052746
  Task:    11 matrix size:    1007347
  Task:    12 matrix size:    1681386
  Task:    13 matrix size:    1342517
  Task:    14 matrix size:    1360424
  Task:    15 matrix size:    1789558
  Task:    16 matrix size:    1833274
  Task:    17 matrix size:    2153325
  Task:    18 matrix size:    1811815
  Task:    19 matrix size:    1493158
  Task:    20 matrix size:    1527769
  Task:    21 matrix size:     714220
  Task:    22 matrix size:     689527
  Task:    23 matrix size:     546668
  Task:    24 matrix size:    1426288
  Task:    25 matrix size:     789381
  Task:    26 matrix size:     885963
  Task:    27 matrix size:     624302
  Task:    28 matrix size:     645071
  Task:    29 matrix size:     942574
  Task:    30 matrix size:    1520975
  Task:    31 matrix size:     750573
  Task:    32 matrix size:     919699
  Task:    33 matrix size:     628281
  Task:    34 matrix size:     654206
  Task:    35 matrix size:    1633450
  Task:    36 matrix size:    1856804
  Task:    37 matrix size:    1843243
  Task:    38 matrix size:    1808585
  Task:    39 matrix size:    1675979
  Task:    40 matrix size:    1264038
  Task:    41 matrix size:    1677836
  Task:    42 matrix size:    1708422
  Task:    43 matrix size:    1289719
  Task:    44 matrix size:    1374318
  Task:    45 matrix size:     622051
  Task:    46 matrix size:     521549
  Task:    47 matrix size:     774136
  Task:    48 matrix size:     365447
  Task:    49 matrix size:    1282497
  Task:    50 matrix size:     967724
  Task:    51 matrix size:     600770
  Task:    52 matrix size:    1208045
  Task:    53 matrix size:     718643
  Task:    54 matrix size:    1058872
  Task:    55 matrix size:     910676
  Integrating Hamiltonian matrix: batch-based integration.
  Time summed over all CPUs for integration: real work      625.281 s, elapsed     1097.460 s
  Time get_set_sparse_local_matrix_scalapack:     0.051835 s
  Start compute_balanced_batch_distribution
  Done load balancing, time needed:      0.025 s
  Integrating overlap matrix with loadbalancing
  Time summed over all CPUs for integration: real work      189.241 s, elapsed      214.730 s
  Time get_set_full_local_matrix_scalapack:     0.069625 s

  Updating Kohn-Sham eigenvalues and eigenvectors using ELSI and the ELPA eigensolver.
  Overlap matrix is not singular
  | Lowest and highest eigenvalues :  0.13E+02,  0.82E-04
  Finished singularity check of overlap matrix
  | Time :     0.693 s
  Finished Cholesky decomposition
  | Time :     0.234 s
  Finished transformation to standard eigenproblem
  | Time :     0.229 s
  Starting ELPA eigensolver
  Finished solving standard eigenproblem
  | Time :     0.807 s
  Finished back-transformation of eigenvectors
  | Time :     0.043 s

  Obtaining occupation numbers and chemical potential using ELSI.
  | Chemical potential (Fermi level):    -8.72515571 eV
  Writing Kohn-Sham eigenvalues.

  State    Occupation    Eigenvalue [Ha]    Eigenvalue [eV]
      1       2.00000         -10.175875         -276.89965
      2       2.00000         -10.175875         -276.89964
      3       2.00000         -10.174403         -276.85959
      4       2.00000         -10.174403         -276.85959
      5       2.00000         -10.173935         -276.84685
      6       2.00000         -10.173935         -276.84685
      7       2.00000         -10.173275         -276.82890
      8       2.00000         -10.173275         -276.82889
      9       2.00000         -10.173246         -276.82810
     10       2.00000         -10.173245         -276.82809
     11       2.00000         -10.173010         -276.82169
     12       2.00000         -10.173010         -276.82168
     13       2.00000         -10.172912         -276.81902
     14       2.00000         -10.172912         -276.81901
     15       2.00000         -10.172773         -276.81523
     16       2.00000         -10.172773         -276.81522
     17       2.00000         -10.172664         -276.81228
     18       2.00000         -10.172664         -276.81227
     19       2.00000         -10.172426         -276.80580
     20       2.00000         -10.172426         -276.80580
     21       2.00000         -10.172356         -276.80390
     22       2.00000         -10.172356         -276.80390
     23       2.00000         -10.172264         -276.80140
     24       2.00000         -10.172264         -276.80139
     25       2.00000         -10.172159         -276.79853
     26       2.00000         -10.172159         -276.79853
     27       2.00000         -10.172084         -276.79650
     28       2.00000         -10.172084         -276.79650
     29       2.00000         -10.171850         -276.79012
     30       2.00000         -10.171850         -276.79012
     31       2.00000         -10.171533         -276.78149
     32       2.00000         -10.171533         -276.78149
     33       2.00000         -10.171334         -276.77607
     34       2.00000         -10.171334         -276.77607
     35       2.00000         -10.171249         -276.77377
     36       2.00000         -10.171249         -276.77376
     37       2.00000         -10.171088         -276.76938
     38       2.00000         -10.171088         -276.76938
     39       2.00000         -10.170930         -276.76509
     40       2.00000         -10.170930         -276.76509
     41       2.00000         -10.170594         -276.75596
     42       2.00000         -10.170594         -276.75595
     43       2.00000         -10.170336         -276.74893
     44       2.00000         -10.170336         -276.74893
     45       2.00000         -10.170127         -276.74324
     46       2.00000         -10.170127         -276.74324
     47       2.00000         -10.168946         -276.71111
     48       2.00000         -10.168946         -276.71111
     49       2.00000         -10.168728         -276.70516
     50       2.00000         -10.168728         -276.70515
     51       2.00000         -10.168353         -276.69496
     52       2.00000         -10.168353         -276.69495
     53       2.00000         -10.166603         -276.64735
     54       2.00000         -10.166603         -276.64735
     55       2.00000         -10.165671         -276.62199
     56       2.00000         -10.165671         -276.62199
     57       2.00000         -10.165532         -276.61819
     58       2.00000         -10.165532         -276.61819
     59       2.00000         -10.165044         -276.60492
     60       2.00000         -10.165038         -276.60475
     61       2.00000         -10.164579         -276.59226
     62       2.00000         -10.164572         -276.59207
     63       2.00000         -10.164512         -276.59045
     64       2.00000         -10.164512         -276.59045
     65       2.00000         -10.163959         -276.57540
     66       2.00000         -10.163959         -276.57540
     67       2.00000         -10.163702         -276.56841
     68       2.00000         -10.163702         -276.56841
     69       2.00000         -10.163208         -276.55495
     70       2.00000         -10.163207         -276.55495
     71       2.00000         -10.162484         -276.53525
     72       2.00000         -10.162484         -276.53525
     73       2.00000         -10.162055         -276.52359
     74       2.00000         -10.162055         -276.52358
     75       2.00000         -10.160460         -276.48019
     76       2.00000         -10.160460         -276.48018
     77       2.00000         -10.159770         -276.46141
     78       2.00000         -10.159770         -276.46140
     79       2.00000         -10.158350         -276.42278
     80       2.00000         -10.158350         -276.42278
     81       2.00000         -10.157732         -276.40596
     82       2.00000         -10.157732         -276.40596
     83       2.00000         -10.156681         -276.37734
     84       2.00000         -10.156681         -276.37734
     85       2.00000         -10.156337         -276.36798
     86       2.00000         -10.156336         -276.36798
     87       2.00000          -1.020384          -27.76606
     88       2.00000          -1.018465          -27.71385
     89       2.00000          -1.015099          -27.62225
     90       2.00000          -1.005559          -27.36265
     91       2.00000          -1.004881          -27.34419
     92       2.00000          -1.003362          -27.30286
     93       2.00000          -0.999809          -27.20620
     94       2.00000          -0.999781          -27.20544
     95       2.00000          -0.995020          -27.07587
     96       2.00000          -0.988749          -26.90522
     97       2.00000          -0.985623          -26.82016
     98       2.00000          -0.985619          -26.82007
     99       2.00000          -0.976129          -26.56182
    100       2.00000          -0.961171          -26.15479
    101       2.00000          -0.949268          -25.83090
    102       2.00000          -0.941197          -25.61126
    103       2.00000          -0.938713          -25.54369
    104       2.00000          -0.930630          -25.32373
    105       2.00000          -0.930122          -25.30991
    106       2.00000          -0.925624          -25.18750
    107       2.00000          -0.917533          -24.96735
    108       2.00000          -0.906457          -24.66594
    109       2.00000          -0.897481          -24.42170
    110       2.00000          -0.895786          -24.37559
    111       2.00000          -0.892549          -24.28749
    112       2.00000          -0.888806          -24.18563
    113       2.00000          -0.888372          -24.17382
    114       2.00000          -0.887248          -24.14325
    115       2.00000          -0.887148          -24.14052
    116       2.00000          -0.886975          -24.13581
    117       2.00000          -0.885933          -24.10747
    118       2.00000          -0.884863          -24.07834
    119       2.00000          -0.884121          -24.05816
    120       2.00000          -0.881993          -24.00025
    121       2.00000          -0.880872          -23.96976
    122       2.00000          -0.873438          -23.76746
    123       2.00000          -0.868711          -23.63882
    124       2.00000          -0.868639          -23.63687
    125       2.00000          -0.859709          -23.39386
    126       2.00000          -0.854457          -23.25096
    127       2.00000          -0.852860          -23.20750
    128       2.00000          -0.842172          -22.91668
    129       2.00000          -0.822387          -22.37828
    130       2.00000          -0.812166          -22.10016
    131       2.00000          -0.786924          -21.41329
    132       2.00000          -0.777997          -21.17037
    133       2.00000          -0.775590          -21.10488
    134       2.00000          -0.775278          -21.09640
    135       2.00000          -0.772898          -21.03162
    136       2.00000          -0.767856          -20.89442
    137       2.00000          -0.767515          -20.88513
    138       2.00000          -0.765284          -20.82443
    139       2.00000          -0.759294          -20.66145
    140       2.00000          -0.755940          -20.57017
    141       2.00000          -0.752746          -20.48327
    142       2.00000          -0.752506          -20.47673
    143       2.00000          -0.752381          -20.47334
    144       2.00000          -0.748875          -20.37793
    145       2.00000          -0.748311          -20.36259
    146       2.00000          -0.747446          -20.33904
    147       2.00000          -0.747377          -20.33716
    148       2.00000          -0.745146          -20.27645
    149       2.00000          -0.743860          -20.24146
    150       2.00000          -0.731711          -19.91086
    151       2.00000          -0.730916          -19.88922
    152       2.00000          -0.720171          -19.59684
    153       2.00000          -0.713400          -19.41260
    154       2.00000          -0.710340          -19.32935
    155       2.00000          -0.704667          -19.17496
    156       2.00000          -0.696577          -18.95484
    157       2.00000          -0.682039          -18.55922
    158       2.00000          -0.681117          -18.53412
    159       2.00000          -0.678933          -18.47471
    160       2.00000          -0.677250          -18.42891
    161       2.00000          -0.670084          -18.23391
    162       2.00000          -0.668108          -18.18015
    163       2.00000          -0.660867          -17.98311
    164       2.00000          -0.660355          -17.96918
    165       2.00000          -0.659737          -17.95235
    166       2.00000          -0.658341          -17.91437
    167       2.00000          -0.656498          -17.86423
    168       2.00000          -0.650159          -17.69173
    169       2.00000          -0.649262          -17.66732
    170       2.00000          -0.641446          -17.45463
    171       2.00000          -0.636437          -17.31832
    172       2.00000          -0.634708          -17.27128
    173       2.00000          -0.634284          -17.25975
    174       2.00000          -0.633794          -17.24640
    175       2.00000          -0.630764          -17.16397
    176       2.00000          -0.630163          -17.14760
    177       2.00000          -0.629931          -17.14128
    178       2.00000          -0.627265          -17.06876
    179       2.00000          -0.622903          -16.95006
    180       2.00000          -0.621212          -16.90404
    181       2.00000          -0.613530          -16.69501
    182       2.00000          -0.612543          -16.66815
    183       2.00000          -0.608539          -16.55919
    184       2.00000          -0.608123          -16.54788
    185       2.00000          -0.606896          -16.51449
    186       2.00000          -0.604637          -16.45301
    187       2.00000          -0.602015          -16.38166
    188       2.00000          -0.591602          -16.09830
    189       2.00000          -0.591155          -16.08613
    190       2.00000          -0.588791          -16.02183
    191       2.00000          -0.585298          -15.92677
    192       2.00000          -0.579408          -15.76649
    193       2.00000          -0.579351          -15.76495
    194       2.00000          -0.579084          -15.75767
    195       2.00000          -0.576600          -15.69009
    196       2.00000          -0.576176          -15.67855
    197       2.00000          -0.575626          -15.66358
    198       2.00000          -0.575582          -15.66238
    199       2.00000          -0.574804          -15.64122
    200       2.00000          -0.574055          -15.62083
    201       2.00000          -0.572948          -15.59071
    202       2.00000          -0.570728          -15.53029
    203       2.00000          -0.569279          -15.49088
    204       2.00000          -0.567628          -15.44593
    205       2.00000          -0.566667          -15.41980
    206       2.00000          -0.566286          -15.40942
    207       2.00000          -0.566120          -15.40491
    208       2.00000          -0.565813          -15.39656
    209       2.00000          -0.565572          -15.38999
    210       2.00000          -0.565570          -15.38994
    211       2.00000          -0.564285          -15.35497
    212       2.00000          -0.564188          -15.35234
    213       2.00000          -0.552636          -15.03799
    214       2.00000          -0.548495          -14.92530
    215       2.00000          -0.543400          -14.78667
    216       2.00000          -0.538570          -14.65524
    217       2.00000          -0.538311          -14.64818
    218       2.00000          -0.537498          -14.62607
    219       2.00000          -0.533634          -14.52093
    220       2.00000          -0.527649          -14.35806
    221       2.00000          -0.527034          -14.34131
    222       2.00000          -0.525892          -14.31024
    223       2.00000          -0.525736          -14.30600
    224       2.00000          -0.521403          -14.18810
    225       2.00000          -0.519289          -14.13057
    226       2.00000          -0.519286          -14.13049
    227       2.00000          -0.518747          -14.11582
    228       2.00000          -0.512756          -13.95279
    229       2.00000          -0.508126          -13.82680
    230       2.00000          -0.506573          -13.78456
    231       2.00000          -0.506263          -13.77613
    232       2.00000          -0.505964          -13.76799
    233       2.00000          -0.505197          -13.74710
    234       2.00000          -0.504192          -13.71977
    235       2.00000          -0.503519          -13.70144
    236       2.00000          -0.503024          -13.68797
    237       2.00000          -0.501739          -13.65301
    238       2.00000          -0.499844          -13.60145
    239       2.00000          -0.499082          -13.58070
    240       2.00000          -0.499040          -13.57957
    241       2.00000          -0.498113          -13.55433
    242       2.00000          -0.497048          -13.52537
    243       2.00000          -0.496590          -13.51291
    244       2.00000          -0.496040          -13.49794
    245       2.00000          -0.494824          -13.46485
    246       2.00000          -0.494693          -13.46128
    247       2.00000          -0.493609          -13.43178
    248       2.00000          -0.488945          -13.30488
    249       2.00000          -0.488647          -13.29675
    250       2.00000          -0.482924          -13.14104
    251       2.00000          -0.480546          -13.07631
    252       2.00000          -0.479442          -13.04628
    253       2.00000          -0.475190          -12.93057
    254       2.00000          -0.472652          -12.86151
    255       2.00000          -0.458810          -12.48486
    256       2.00000          -0.446212          -12.14204
    257       2.00000          -0.441564          -12.01557
    258       2.00000          -0.437518          -11.90548
    259       2.00000          -0.431115          -11.73123
    260       2.00000          -0.427560          -11.63451
    261       2.00000          -0.421119          -11.45923
    262       2.00000          -0.417078          -11.34926
    263       2.00000          -0.410762          -11.17741
    264       2.00000          -0.409270          -11.13680
    265       2.00000          -0.408216          -11.10813
    266       2.00000          -0.407741          -11.09518
    267       2.00000          -0.406785          -11.06920
    268       2.00000          -0.406297          -11.05591
    269       2.00000          -0.404878          -11.01730
    270       2.00000          -0.404687          -11.01210
    271       2.00000          -0.402201          -10.94445
    272       2.00000          -0.401937          -10.93727
    273       2.00000          -0.401492          -10.92515
    274       2.00000          -0.400016          -10.88498
    275       2.00000          -0.398845          -10.85314
    276       2.00000          -0.388044          -10.55921
    277       2.00000          -0.387544          -10.54560
    278       2.00000          -0.384525          -10.46345
    279       2.00000          -0.373766          -10.17069
    280       2.00000          -0.362556           -9.86566
    281       2.00000          -0.358891           -9.76592
    282       2.00000          -0.351947           -9.57697
    283       2.00000          -0.324411           -8.82767
    284       0.00000          -0.288570           -7.85240
    285       0.00000          -0.257734           -7.01329
    286       0.00000          -0.250792           -6.82441
    287       0.00000          -0.247116           -6.72438
    288       0.00000          -0.236669           -6.44008
    289       0.00000          -0.225847           -6.14560
    290       0.00000          -0.223400           -6.07901
    291       0.00000          -0.221492           -6.02711
    292       0.00000          -0.216612           -5.89432
    293       0.00000          -0.215803           -5.87230
    294       0.00000          -0.214615           -5.83997
    295       0.00000          -0.213769           -5.81694
    296       0.00000          -0.213040           -5.79712
    297       0.00000          -0.212426           -5.78042
    298       0.00000          -0.211983           -5.76835
    299       0.00000          -0.210941           -5.74000
    300       0.00000          -0.210663           -5.73243
    301       0.00000          -0.208342           -5.66927
    302       0.00000          -0.206360           -5.61534
    303       0.00000          -0.205274           -5.58580
    304       0.00000          -0.197346           -5.37005
    305       0.00000          -0.191132           -5.20096
    306       0.00000          -0.175010           -4.76225
    307       0.00000          -0.174211           -4.74052
    308       0.00000          -0.163193           -4.44070
    309       0.00000          -0.159475           -4.33953
    310       0.00000          -0.156903           -4.26953
    311       0.00000          -0.151136           -4.11263
    312       0.00000          -0.133270           -3.62645
    313       0.00000          -0.112710           -3.06700
    314       0.00000          -0.093762           -2.55138
    315       0.00000          -0.083976           -2.28511
    316       0.00000          -0.082060           -2.23298
[...]
    446       0.00000           0.204526            5.56545
    447       0.00000           0.205632            5.59554
    448       0.00000           0.206293            5.61352
    449       0.00000           0.206982            5.63226
    450       0.00000           0.207984            5.65953
    451       0.00000           0.210293            5.72237
    452       0.00000           0.210846            5.73741
    453       0.00000           0.211607            5.75812
    454       0.00000           0.212067            5.77062
    455       0.00000           0.212923            5.79392
    456       0.00000           0.213489            5.80932
    457       0.00000           0.215018            5.85093
    458       0.00000           0.215024            5.85109
    459       0.00000           0.217282            5.91255
    460       0.00000           0.218550            5.94706
    461       0.00000           0.218594            5.94824
    462       0.00000           0.219765            5.98010
    463       0.00000           0.220866            6.01008
    464       0.00000           0.221917            6.03866
    465       0.00000           0.223170            6.07276
    466       0.00000           0.224582            6.11119
    467       0.00000           0.224965            6.12160
    468       0.00000           0.225561            6.13782
    469       0.00000           0.225749            6.14293
    470       0.00000           0.226773            6.17080
    471       0.00000           0.227046            6.17824
    472       0.00000           0.227199            6.18239
    473       0.00000           0.227635            6.19427
    474       0.00000           0.228288            6.21204
    475       0.00000           0.228595            6.22037
    476       0.00000           0.230244            6.26526
    477       0.00000           0.230766            6.27945
    478       0.00000           0.231532            6.30030
    479       0.00000           0.233349            6.34974
    480       0.00000           0.235354            6.40430
    481       0.00000           0.235992            6.42166
    482       0.00000           0.236758            6.44251
    483       0.00000           0.238208            6.48196
    484       0.00000           0.238925            6.50147
    485       0.00000           0.240286            6.53852
    486       0.00000           0.240567            6.54617
    487       0.00000           0.241667            6.57610
    488       0.00000           0.241985            6.58475
    489       0.00000           0.243863            6.63585
    490       0.00000           0.243935            6.63780
    491       0.00000           0.246333            6.70307
    492       0.00000           0.246861            6.71742
    493       0.00000           0.248190            6.75361
    494       0.00000           0.248473            6.76131
    495       0.00000           0.251226            6.83620
    496       0.00000           0.253858            6.90782
    497       0.00000           0.254779            6.93288
    498       0.00000           0.255092            6.94142
    499       0.00000           0.256036            6.96710
    500       0.00000           0.256614            6.98283
    501       0.00000           0.256987            6.99298
    502       0.00000           0.257748            7.01367
    503       0.00000           0.258843            7.04347
    504       0.00000           0.260396            7.08575
    505       0.00000           0.261834            7.12486
    506       0.00000           0.262535            7.14394
    507       0.00000           0.264841            7.20668
    508       0.00000           0.265913            7.23586
    509       0.00000           0.266227            7.24440
    510       0.00000           0.266701            7.25732
    511       0.00000           0.267289            7.27331
    512       0.00000           0.268340            7.30189
    513       0.00000           0.271724            7.39399
    514       0.00000           0.272041            7.40261
    515       0.00000           0.272923            7.42661
    516       0.00000           0.273142            7.43258
    517       0.00000           0.275383            7.49355
    518       0.00000           0.276495            7.52380
    519       0.00000           0.278969            7.59115
    520       0.00000           0.280731            7.63907
    521       0.00000           0.281637            7.66374
    522       0.00000           0.281640            7.66383
    523       0.00000           0.283018            7.70130
    524       0.00000           0.284412            7.73925
    525       0.00000           0.285437            7.76713
    526       0.00000           0.285683            7.77384
    527       0.00000           0.286015            7.78288
    528       0.00000           0.286061            7.78412
    529       0.00000           0.287291            7.81760
    530       0.00000           0.290684            7.90990
    531       0.00000           0.291330            7.92749
    532       0.00000           0.292438            7.95763
    533       0.00000           0.293641            7.99038
    534       0.00000           0.293689            7.99167
    535       0.00000           0.295460            8.03986
    536       0.00000           0.296511            8.06847
    537       0.00000           0.297974            8.10828
    538       0.00000           0.299229            8.14244
    539       0.00000           0.300587            8.17938
    540       0.00000           0.301259            8.19768
    541       0.00000           0.301604            8.20706
    542       0.00000           0.304240            8.27879
    543       0.00000           0.304979            8.29889
    544       0.00000           0.307168            8.35846
    545       0.00000           0.308917            8.40607
    546       0.00000           0.310443            8.44758
    547       0.00000           0.310752            8.45599
    548       0.00000           0.312739            8.51007
    549       0.00000           0.315239            8.57809
    550       0.00000           0.315601            8.58795
    551       0.00000           0.316394            8.60953
    552       0.00000           0.317706            8.64522
    553       0.00000           0.318924            8.67836
    554       0.00000           0.319608            8.69697
    555       0.00000           0.319818            8.70268
    556       0.00000           0.321284            8.74260
    557       0.00000           0.324946            8.84222
    558       0.00000           0.327162            8.90254
    559       0.00000           0.327935            8.92357
    560       0.00000           0.329426            8.96414
    561       0.00000           0.331581            9.02277
    562       0.00000           0.331644            9.02449
    563       0.00000           0.331793            9.02854
    564       0.00000           0.333191            9.06659
    565       0.00000           0.335031            9.11664
    566       0.00000           0.336484            9.15620
    567       0.00000           0.338295            9.20548
    568       0.00000           0.339117            9.22785
    569       0.00000           0.340265            9.25910
    570       0.00000           0.343167            9.33805
    571       0.00000           0.347638            9.45971
    572       0.00000           0.347723            9.46203
    573       0.00000           0.350070            9.52590
    574       0.00000           0.350085            9.52629
    575       0.00000           0.351810            9.57323
    576       0.00000           0.353529            9.62002
    577       0.00000           0.353898            9.63006
    578       0.00000           0.355669            9.67825
    579       0.00000           0.356000            9.68724
    580       0.00000           0.359713            9.78829
    581       0.00000           0.361254            9.83022
    582       0.00000           0.362694            9.86941
    583       0.00000           0.363400            9.88861
    584       0.00000           0.364399            9.91580
    585       0.00000           0.364988            9.93184
    586       0.00000           0.366278            9.96693
    587       0.00000           0.368921           10.03885
    588       0.00000           0.371372           10.10554
    589       0.00000           0.372919           10.14764
    590       0.00000           0.374589           10.19310
    591       0.00000           0.376128           10.23496
    592       0.00000           0.376643           10.24899
    593       0.00000           0.377486           10.27191
    594       0.00000           0.377740           10.27884
    595       0.00000           0.379156           10.31736
    596       0.00000           0.379772           10.33413
    597       0.00000           0.382295           10.40278
    598       0.00000           0.385047           10.47767
    599       0.00000           0.385847           10.49943
    600       0.00000           0.387165           10.53530
    601       0.00000           0.388340           10.56728
    602       0.00000           0.392175           10.67164
    603       0.00000           0.392910           10.69161
    604       0.00000           0.393942           10.71969
    605       0.00000           0.395165           10.75299
    606       0.00000           0.395758           10.76912
    607       0.00000           0.397914           10.82780
    608       0.00000           0.398321           10.83886
    609       0.00000           0.400437           10.89645
    610       0.00000           0.401435           10.92361
    611       0.00000           0.405433           11.03239
    612       0.00000           0.408404           11.11323
    613       0.00000           0.408758           11.12286
    614       0.00000           0.411002           11.18394
    615       0.00000           0.412418           11.22247
    616       0.00000           0.413740           11.25845

  Highest occupied state (VBM) at     -4.19085087 eV
  | Occupation number:      2.00000000

  Lowest unoccupied state (CBM) at    -3.31626488 eV
  | Occupation number:      0.00000000

  Overall HOMO-LUMO gap:      0.87458599 eV.

  Total energy components:
  | Sum of eigenvalues            :       -1880.36376284 Ha      -51167.30135043 eV
  | XC energy correction          :        -482.34661238 Ha      -13125.31913187 eV
  | XC potential correction       :         619.64690093 Ha       16861.45007552 eV
  | Free-atom electrostatic energy:       -1441.19642042 Ha      -39216.94993617 eV
  | Hartree energy correction     :        -121.68113456 Ha       -3311.11213900 eV
  | Entropy correction            :           0.00000000 Ha           0.00000000 eV
  | ---------------------------
  | Total energy                  :       -3305.94102928 Ha      -89959.23248195 eV
  | Total energy, T -> 0          :       -3305.94102928 Ha      -89959.23248195 eV  <-- do not rely on this value for anything but (periodic) metals
  | Electronic free energy        :       -3305.94102928 Ha      -89959.23248195 eV

  Derived energy quantities:
  | Kinetic energy                :        3297.14990355 Ha       89720.01377953 eV
  | Electrostatic energy          :       -6120.74432044 Ha     -166553.92712961 eV
  | Energy correction for multipole
  | error in Hartree potential    :          -0.40170525 Ha         -10.93095595 eV
  | Sum of eigenvalues per atom                           :        -376.23015699 eV
  | Total energy (T->0) per atom                          :        -661.46494472 eV  <-- do not rely on this value for anything but (periodic) metals
  | Electronic free energy per atom                       :        -661.46494472 eV
  End evaluation of scaled ZORA corrections.
  | Time for scaled ZORA corrections           :       21.764 s          21.768 s
------------------------------------------------------------

  Energy and forces in a compact form:
  | Total energy uncorrected      :         -0.899592324819477E+05 eV
  | Total energy corrected        :         -0.899592324819477E+05 eV  <-- do not rely on this value for anything but (periodic) metals
  | Electronic free energy        :         -0.899592324819477E+05 eV

  ------------------------------------ 
  Start decomposition of the XC Energy 
  ------------------------------------ 
  X and C from original XC functional choice 
  Hartree-Fock Energy :          0.000000000 Ha              0.000000000 eV
  X Energy            :       -463.310800832 Ha         -12607.328344452 eV
  C Energy            :        -19.035811552 Ha           -517.990787418 eV
  Total XC Energy     :       -482.346612385 Ha         -13125.319131869 eV
  ------------------------------------ 
  LDA X and C from self-consistent density 
  X Energy LDA        :       -419.698902517 Ha         -11420.588210626 eV
  C Energy LDA        :        -36.593390192 Ha           -995.756810686 eV
  ------------------------------------ 
  End decomposition of the XC Energy 
  ------------------------------------ 

------------------------------------------------------------

------------------------------------------------------------------------------
  Final output of selected total energy values:

  The following output summarizes some interesting total energy values
  at the end of a run (AFTER all relaxation, molecular dynamics, etc.).

  | Total energy of the DFT / Hartree-Fock s.c.f. calculation      :         -89959.232481948 eV
  | Final zero-broadening corrected energy (caution - metals only) :         -89959.232481948 eV
  | For reference only, the value of 1 Hartree used in FHI-aims is :             27.211384500 eV

  Before relying on these values, please be sure to understand exactly which
  total energy value is referred to by a given number. Different objects may
  all carry the same name 'total energy'. Definitions:

  Total energy of the DFT / Hartree-Fock s.c.f. calculation:
  | Note that this energy does not include ANY quantities calculated after the
  | s.c.f. cycle, in particular not ANY RPA, MP2, etc. many-body perturbation terms.
  | Scalar relativistic effects have been included in the 'scaled ZORA' approximation.

  Final zero-broadening corrected energy:
  | For metallic systems only, a broadening of the occupation numbers at the Fermi
  | level can be extrapolated back to zero broadening by an electron-gas inspired
  | formula. For all systems that are not real metals, this value can be
  | meaningless and should be avoided.

------------------------------------------------------------------------------
  Methods described in the following list of references were used in this FHI-aims run.
  If you publish the results, please make sure to cite these reference if they apply.
  FHI-aims is an academic code, and for our developers (often, Ph.D. students
  and postdocs), scientific credit in the community is essential.
  Thank you for helping us!

  For any use of FHI-aims, please cite:

    Volker Blum, Ralf Gehrke, Felix Hanke, Paula Havu, Ville Havu,
    Xinguo Ren, Karsten Reuter, and Matthias Scheffler
    'Ab initio molecular simulations with numeric atom-centered orbitals'
    Computer Physics Communications 180, 2175-2196 (2009)
    http://dx.doi.org/10.1016/j.cpc.2009.06.022


  The scalable eigensolver library ELPA was used in your run.
  ELPA is essential especially for large systems on hundreds or thousands of CPUs.
  For ELPA, please cite:

    Andreas Marek, Volker Blum, Rainer Johanni, Ville Havu, Bruno Lang,
    Thomas Auckenthaler, Alexander Heinecke, Hans-Joachim Bungartz, and Hermann Lederer,
    'The ELPA Library - Scalable Parallel Eigenvalue Solutions
    for Electronic Structure Theory and Computational Science'
    The Journal of Physics: Condensed Matter 26, 213201 (2014).
    http://dx.doi.org/10.1088/0953-8984/26/21/213201


  The ELSI infrastructure was used in your run to solve the Kohn-Sham electronic structure.
  Please check out http://elsi-interchange.org to learn more.
  If scalability is important for your project, please acknowledge ELSI by citing:

    V. W-z. Yu, F. Corsetti, A. Garcia, W. P. Huhn, M. Jacquelin, W. Jia,
    B. Lange, L. Lin, J. Lu, W. Mi, A. Seifitokaldani, A. Vazquez-Mayagoitia,
    C. Yang, H. Yang, and V. Blum
    'ELSI: A unified software interface for Kohn-Sham electronic structure solvers'
    Computer Physics Communications 222, 267-285 (2018).
    http://dx.doi.org/10.1016/j.cpc.2017.09.007


  For the real-space grid partitioning and parallelization used in this calculation, please cite:

    Ville Havu, Volker Blum, Paula Havu, and Matthias Scheffler,
    'Efficient O(N) integration for all-electron electronic structure calculation'
    'using numerically tabulated basis functions'
    Journal of Computational Physics 228, 8367-8379 (2009).
    http://dx.doi.org/10.1016/j.jcp.2009.08.008

  Of course, there are many other important community references, e.g., those cited in the
  above references. Our list is limited to references that describe implementations in the
  FHI-aims code. The reason is purely practical (length of this list) - please credit others as well.

------------------------------------------------------------
          Leaving FHI-aims.
          Date     :  20210620, Time     :  173356.305

          Computational steps:
          | Number of self-consistency cycles          :           19
          | Number of SCF (re)initializations          :            1

          Detailed time accounting                     :  max(cpu_time)    wall_clock(cpu1)
          | Total time                                 :      542.754 s         550.055 s
          | Preparation time                           :        0.199 s           0.206 s
          | Boundary condition initalization           :        0.001 s           0.004 s
          | Grid partitioning                          :        4.045 s           4.049 s
          | Preloading free-atom quantities on grid    :        0.013 s           0.017 s
          | Free-atom superposition energy             :        0.296 s           0.296 s
          | Total time for integrations                :      261.334 s         261.340 s
          | Total time for solution of K.-S. equations :       27.083 s          27.106 s
          | Total time for density update              :      161.214 s         161.137 s
          | Total time for mixing                      :        0.491 s           7.547 s
          | Total time for Hartree multipole update    :        0.484 s           0.490 s
          | Total time for Hartree multipole sum       :       61.307 s          61.312 s
          | Total time for total energy evaluation     :        0.010 s           0.039 s
          | Total time for scaled ZORA corrections     :       21.764 s          21.768 s

          Partial memory accounting:
          | Residual value for overall tracked memory usage across tasks :     0.000000 MB (should be 0.000000 MB)
          | Peak values for overall tracked memory usage (after allocating zora_vector2):
          |   Minimum:       59.598 MB (on task 49)
          |   Maximum:       86.742 MB (on task 38)
          |   Average:       70.450 MB
          | Largest tracked array allocation (+KS_eigenvector):
          |   Minimum:       20.225 MB (on task  1)
          |   Maximum:       24.295 MB (on task 38)
          |   Average:       20.343 MB
          Note:  These values currently only include a subset of arrays which are explicitly tracked.
          The "true" memory usage will be greater.

          Have a nice day.
------------------------------------------------------------
