  MPI-parallelism will be employed.
------------------------------------------------------------
          Invoking FHI-aims ...
          Version 180607
          Git rev. (modified): 6724847 Fix JSON memory corruption in scf_solver
          Compiled on 2018/06/27 at 16:00:31 on host coe.psc.edu.

          When using FHI-aims, please cite the following reference:

          Volker Blum, Ralf Gehrke, Felix Hanke, Paula Havu,
          Ville Havu, Xinguo Ren, Karsten Reuter, and Matthias Scheffler,
          'Ab Initio Molecular Simulations with Numeric Atom-Centered Orbitals',
          Computer Physics Communications 180, 2175-2196 (2009)

          For any questions about FHI-aims, please visit the aimsclub website
          with its forums and wiki. Contributions to both the forums and the
          wiki are warmly encouraged - they are for you, and everyone is welcome there.

------------------------------------------------------------



  Date     :  20210620, Time     :  175039.381
  Time zero on CPU 1             :   0.217397000000000E+00  s.
  Internal wall clock time zero  :           393443439.381  s.

  FHI-aims created a unique identifier for this run for later identification
  aims_uuid : 2AD82C69-6D78-48CA-A5CE-3D72CBB26DBB

  Using       56 parallel tasks.
  Task        0 on host d024 reporting.
  Task        1 on host d024 reporting.
  Task        2 on host d024 reporting.
  Task        3 on host d024 reporting.
  Task        4 on host d024 reporting.
  Task        5 on host d024 reporting.
  Task        6 on host d024 reporting.
  Task        7 on host d024 reporting.
  Task        8 on host d024 reporting.
  Task        9 on host d024 reporting.
  Task       10 on host d024 reporting.
  Task       11 on host d024 reporting.
  Task       12 on host d024 reporting.
  Task       13 on host d024 reporting.
  Task       14 on host d024 reporting.
  Task       15 on host d024 reporting.
  Task       16 on host d024 reporting.
  Task       17 on host d024 reporting.
  Task       18 on host d024 reporting.
  Task       19 on host d024 reporting.
  Task       20 on host d024 reporting.
  Task       21 on host d024 reporting.
  Task       22 on host d024 reporting.
  Task       23 on host d024 reporting.
  Task       24 on host d024 reporting.
  Task       25 on host d024 reporting.
  Task       26 on host d024 reporting.
  Task       27 on host d024 reporting.
  Task       28 on host d024 reporting.
  Task       29 on host d024 reporting.
  Task       30 on host d024 reporting.
  Task       31 on host d024 reporting.
  Task       32 on host d024 reporting.
  Task       33 on host d024 reporting.
  Task       34 on host d024 reporting.
  Task       35 on host d024 reporting.
  Task       36 on host d024 reporting.
  Task       37 on host d024 reporting.
  Task       38 on host d024 reporting.
  Task       39 on host d024 reporting.
  Task       40 on host d024 reporting.
  Task       41 on host d024 reporting.
  Task       42 on host d024 reporting.
  Task       43 on host d024 reporting.
  Task       44 on host d024 reporting.
  Task       45 on host d024 reporting.
  Task       46 on host d024 reporting.
  Task       47 on host d024 reporting.
  Task       48 on host d024 reporting.
  Task       49 on host d024 reporting.
  Task       50 on host d024 reporting.
  Task       51 on host d024 reporting.
  Task       52 on host d024 reporting.
  Task       53 on host d024 reporting.
  Task       54 on host d024 reporting.
  Task       55 on host d024 reporting.

  Performing system and environment tests:
  *** Environment variable OMP_NUM_THREADS is not set
  *** For performance reasons you might want to set it to 1
  | Stacksize not measured: no C compiler
  | Checking for scalapack...
  | Testing pdtran()...
  | All pdtran() tests passed.

  Obtaining array dimensions for all initial allocations:
  
  -----------------------------------------------------------------------
  Parsing control.in (first pass over file, find array dimensions only).
  The contents of control.in will be repeated verbatim below
  unless switched off by setting 'verbatim_writeout .false.' .
  in the first line of control.in .
  -----------------------------------------------------------------------
  
  #===============================================================================
  # FHI-aims file: ./Runs/es/control.in
  # Created using the Atomic Simulation Environment (ASE)
  # Mon Jan 13 16:04:38 2020
  #===============================================================================
  xc                                 pbe
  relativistic                       zora scalar 1e-12
  occupation_type                    gaussian 0.0001
  load_balancing                     .true.
  KS_method                          scalapack_fast
  mixer                              pulay
  n_max_pulay                        5
  charge_mix_param                   0.4
  sc_accuracy_etot                   1e-6
  sc_accuracy_eev                    1e-4
  sc_accuracy_rho                    1e-6
  sc_iter_limit                      100
  prodbas_threshold                  1e-4
  basis_threshold                    1e-5
  override_illconditioning           .true.
  use_logsbt                         .true.
  spin                               none
  charge                             0
  #===============================================================================
  
  ################################################################################
  #
  #  FHI-aims code project
  # Volker Blum, Fritz Haber Institute Berlin, 2009
  #
  #  Suggested "tight" defaults for H atom (to be pasted into control.in file)
  #
  ################################################################################
    species        H
  #     global species definitions
      nucleus             1
      mass                1.00794
  #
      l_hartree           6
  #
      cut_pot             4.0  2.0  1.0
      basis_dep_cutoff    1e-4
  #
      radial_base         24 7.0
      radial_multiplier   2
      angular_grids       specified
        division   0.1930   50
        division   0.3175  110
        division   0.4293  194
        division   0.5066  302
        division   0.5626  434
  #      division   0.5922  590
  #      division   0.6227  974
  #      division   0.6868 1202
  #      outer_grid  770
        outer_grid  434
  ################################################################################
  #
  #  Definition of "minimal" basis
  #
  ################################################################################
  #     valence basis states
      valence      1  s   1.
  #     ion occupancy
      ion_occ      1  s   0.5
  ################################################################################
  #
  #  Suggested additional basis functions. For production calculations,
  #  uncomment them one after another (the most important basis functions are
  #  listed first).
  #
  #  Basis constructed for dimers: 0.5 A, 0.7 A, 1.0 A, 1.5 A, 2.5 A
  #
  ################################################################################
  #  "First tier" - improvements: -1014.90 meV to -62.69 meV
       hydro 2 s 2.1
       hydro 2 p 3.5
  #  "Second tier" - improvements: -12.89 meV to -1.83 meV
       hydro 1 s 0.85
       hydro 2 p 3.7
       hydro 2 s 1.2
       hydro 3 d 7
  #  "Third tier" - improvements: -0.25 meV to -0.12 meV
  #     hydro 4 f 11.2
  #     hydro 3 p 4.8
  #     hydro 4 d 9
  #     hydro 3 s 3.2
  ################################################################################
  #
  # For methods that use the localized form of the "resolution of identity" for
  # the two-electron Coulomb operator (RI_method LVL), particularly Hartree-Fock and
  # hybrid density functional calculations, the highest accuracy can be obtained by
  # uncommenting the line beginning with "for_aux"  below, thus adding an extra g radial
  # function to the construction of the product basis set for the expansion.
  # See Ref. New J. Phys. 17, 093020 (2015) for more information, particularly Figs. 1 and 6.
  #
  ################################################################################
  #
  # for_aux hydro 5 g 6.0
  ################################################################################
  #
  #  FHI-aims code project
  # Volker Blum, Fritz Haber Institute Berlin, 2009
  #
  #  Suggested "tight" defaults for C atom (to be pasted into control.in file)
  #
  ################################################################################
    species        C
  #     global species definitions
      nucleus             6
      mass                12.0107
  #
      l_hartree           6
  #
      cut_pot             4.0  2.0  1.0
      basis_dep_cutoff    1e-4
  #
      radial_base         34 7.0
      radial_multiplier   2
      angular_grids specified
        division   0.2187   50
        division   0.4416  110
        division   0.6335  194
        division   0.7727  302
        division   0.8772  434
  #      division   0.9334  590
  #      division   0.9924  770
  #      division   1.0230  974
  #      division   1.5020 1202
  #     outer_grid  974
        outer_grid  434
  ################################################################################
  #
  #  Definition of "minimal" basis
  #
  ################################################################################
  #     valence basis states
      valence      2  s   2.
      valence      2  p   2.
  #     ion occupancy
      ion_occ      2  s   1.
      ion_occ      2  p   1.
  ################################################################################
  #
  #  Suggested additional basis functions. For production calculations,
  #  uncomment them one after another (the most important basis functions are
  #  listed first).
  #
  #  Constructed for dimers: 1.0 A, 1.25 A, 1.5 A, 2.0 A, 3.0 A
  #
  ################################################################################
  #  "First tier" - improvements: -1214.57 meV to -155.61 meV
       hydro 2 p 1.7
       hydro 3 d 6
       hydro 2 s 4.9
  #  "Second tier" - improvements: -67.75 meV to -5.23 meV
       hydro 4 f 9.8
       hydro 3 p 5.2
       hydro 3 s 4.3
       hydro 5 g 14.4
       hydro 3 d 6.2
  #  "Third tier" - improvements: -2.43 meV to -0.60 meV
  #     hydro 2 p 5.6
  #     hydro 2 s 1.4
  #     hydro 3 d 4.9
  #     hydro 4 f 11.2
  #  "Fourth tier" - improvements: -0.39 meV to -0.18 meV
  #     hydro 2 p 2.1
  #     hydro 5 g 16.4
  #     hydro 4 d 13.2
  #     hydro 3 s 13.6
  #     hydro 4 f 17.6
  #  Further basis functions - improvements: -0.08 meV and below
  #     hydro 3 s 2
  #     hydro 3 p 6
  #     hydro 4 d 20
  ################################################################################
  #
  # For methods that use the localized form of the "resolution of identity" for
  # the two-electron Coulomb operator (RI_method LVL), particularly Hartree-Fock and
  # hybrid density functional calculations, the highest accuracy can be obtained by
  # uncommenting the line beginning with "for_aux"  below, thus adding an extra g radial
  # function to the construction of the product basis set for the expansion.
  # See Ref. New J. Phys. 17, 093020 (2015) for more information, particularly Figs. 1 and 6.
  #
  ################################################################################
  #
  # for_aux hydro 5 g 6.0
  
  -----------------------------------------------------------------------
  Completed first pass over input file control.in .
  -----------------------------------------------------------------------
  
  
  -----------------------------------------------------------------------
  Parsing geometry.in (first pass over file, find array dimensions only).
  The contents of geometry.in will be repeated verbatim below
  unless switched off by setting 'verbatim_writeout .false.' .
  in the first line of geometry.in .
  -----------------------------------------------------------------------
  
  #=======================================================
  # FHI-aims file: geometry.in
  # Created using the Atomic Simulation Environment (ASE)
  # Sun Jun 20 15:47:02 2021
  #=======================================================
  atom 13.2823680000000000 32.0758640000000028 41.5001880000000014 C
  atom 13.1545919999999992 31.1159360000000014 42.5226559999999978 C
  atom 12.3958560000000002 33.1732960000000006 41.4853189999999969 C
  atom 14.2961279999999995 31.9357669999999985 40.4449740000000020 C
  atom 12.1756799999999998 31.2197120000000012 43.4933329999999998 C
  atom 13.8343389999999999 30.2683460000000011 42.5512250000000023 H
  atom 11.4195840000000004 33.2705860000000015 42.5032759999999996 C
  atom 12.4666080000000008 34.1643559999999979 40.3956879999999998 C
  atom 15.2285760000000003 30.8720630000000007 40.4543299999999988 C
  atom 14.3711040000000008 32.8866140000000016 39.4001179999999991 C
  atom 12.0847060000000006 30.4481380000000001 44.2580120000000008 H
  atom 11.3039520000000007 32.3080629999999971 43.4849800000000002 C
  atom 10.7241020000000002 34.1048150000000021 42.5127990000000011 H
  atom 11.5584480000000003 35.2436269999999965 40.3206739999999968 C
  atom 13.4302080000000004 34.0138809999999978 39.3750580000000028 C
  atom 15.2110990000000008 30.1448520000000002 41.2612779999999972 H
  atom 16.1911200000000015 30.7475319999999996 39.4752999999999972 C
  atom 15.3568800000000003 32.7257620000000031 38.4077219999999997 C
  atom 10.5204529999999998 32.3949759999999998 44.2382980000000003 H
  atom 10.7995009999999994 35.3660819999999987 41.0888619999999989 H
  atom 11.5874880000000005 36.1425860000000014 39.2814979999999991 C
  atom 13.4370720000000006 34.9543510000000026 38.3175049999999970 C
  atom 16.9133180000000003 29.9323709999999998 39.5272580000000033 H
  atom 16.2613440000000011 31.6802180000000000 38.4461480000000009 C
  atom 15.4450559999999992 33.4493399999999994 37.6019440000000031 H
  atom 10.8694080000000000 36.9603409999999997 39.2535979999999967 H
  atom 12.5373599999999996 35.9998939999999976 38.2723960000000005 C
  atom 14.1720480000000002 34.8635469999999970 37.5207479999999975 H
  atom 17.0236179999999990 31.5981060000000014 37.6742849999999976 H
  atom 12.5645520000000008 36.7071279999999973 37.4443970000000022 H
  
  -----------------------------------------------------------------------
  Completed first pass over input file geometry.in .
  -----------------------------------------------------------------------
  

  Basic array size parameters:
  | Number of species                 :        2
  | Number of atoms                   :       30
  | Max. basis fn. angular momentum   :        4
  | Max. atomic/ionic basis occupied n:        2
  | Max. number of basis fn. types    :        2
  | Max. radial fns per species/type  :        8
  | Max. logarithmic grid size        :     1277
  | Max. radial integration grid size :       69
  | Max. angular integration grid size:      434
  | Max. angular grid division number :        8
  | Radial grid for Hartree potential :     1277
  | Number of spin channels           :        1

------------------------------------------------------------
          Reading file control.in.
------------------------------------------------------------
  XC: Using PBE gradient-corrected functionals.
  Scalar relativistic treatment of kinetic energy: ZORA.
  Threshold value for ZORA:   0.100000E-11
  Occupation type: Gaussian broadening, width =   0.100000E-03 eV.
  Since 'load_balancing .true.' is present in control.in, automatically turning on 'use_local_index .true.'.
  Using load balancing for integrations.
  Kohn-Sham electronic structure solved by the ELSI library.
  Using pulay charge density mixing.
  Pulay mixing - number of memorized iterations:    5
  Charge density mixing - mixing parameter:     0.4000
  Convergence accuracy of total energy:  0.1000E-05
  Convergence accuracy of sum of eigenvalues:  0.1000E-03
  Convergence accuracy of self-consistent charge density:  0.1000E-05
  Maximum number of s.-c. iterations  :   100
  * Ignoring prodbas_threshold
  Threshold for basis singularities:  0.1000E-04
  override_illconditioning: Explicitly overriding any built-in checks for an ill-conditioned overlap matrix.
  *** WARNING: If you use this flag, you should really know what you are doing.
  *** DO NOT keep this flag set by default in all your control.in files.
  Using 1D integrations for auxiliary 2-center integrals.
  Spin treatment: No spin polarisation.
  Charge =   0.000000E+00: Neutral system requested explicitly.
 
  Reading configuration options for species H                   .
  | Found nuclear charge :   1.0000
  | Found atomic mass :    1.00794000000000      amu
  | Found l_max for Hartree potential  :   6
  | Found cutoff potl. onset [A], width [A], scale factor :    4.00000    2.00000    1.00000
  | Threshold for basis-dependent cutoff potential is   0.100000E-03
  | Found data for basic radial integration grid :    24 points, outermost radius =    7.000 A
  | Found multiplier for basic radial grid :   2
  | Found angular grid specification: user-specified.
  | Specified grid contains     6 separate shells.
  | Check grid settings after all constraints further below.
  | Found free-atom valence shell :  1 s   1.000
  | No ionic wave fns used. Skipping ion_occ.
  | Found hydrogenic basis function :  2 s   2.100
  | Found hydrogenic basis function :  2 p   3.500
  | Found hydrogenic basis function :  1 s   0.850
  | Found hydrogenic basis function :  2 p   3.700
  | Found hydrogenic basis function :  2 s   1.200
  | Found hydrogenic basis function :  3 d   7.000
  Species H                   : Missing cutoff potential type.
  Defaulting to exp(1/x)/(1-x)^2 type cutoff potential.
  Species H : No 'logarithmic' tag. Using default grid for free atom:
  | Default logarithmic grid data [bohr] : 0.1000E-03 0.1000E+03 0.1012E+01
  Species H : On-site basis accuracy parameter (for Gram-Schmidt orthonormalisation) not specified.
  Using default value basis_acc =  0.1000000E-03.
  Species H                   : Using default innermost maximum threshold i_radial=  2 for radial functions.
  Species H                   : Default cutoff onset for free atom density etc. : 0.40000000E+01 AA.
  Species H                   : Basic radial grid will be enhanced according to radial_multiplier =   2, to contain    49 grid points.
 
  Reading configuration options for species C                   .
  | Found nuclear charge :   6.0000
  | Found atomic mass :    12.0107000000000      amu
  | Found l_max for Hartree potential  :   6
  | Found cutoff potl. onset [A], width [A], scale factor :    4.00000    2.00000    1.00000
  | Threshold for basis-dependent cutoff potential is   0.100000E-03
  | Found data for basic radial integration grid :    34 points, outermost radius =    7.000 A
  | Found multiplier for basic radial grid :   2
  | Found angular grid specification: user-specified.
  | Specified grid contains     6 separate shells.
  | Check grid settings after all constraints further below.
  | Found free-atom valence shell :  2 s   2.000
  | Found free-atom valence shell :  2 p   2.000
  | No ionic wave fns used. Skipping ion_occ.
  | No ionic wave fns used. Skipping ion_occ.
  | Found hydrogenic basis function :  2 p   1.700
  | Found hydrogenic basis function :  3 d   6.000
  | Found hydrogenic basis function :  2 s   4.900
  | Found hydrogenic basis function :  4 f   9.800
  | Found hydrogenic basis function :  3 p   5.200
  | Found hydrogenic basis function :  3 s   4.300
  | Found hydrogenic basis function :  5 g  14.400
  | Found hydrogenic basis function :  3 d   6.200
  Species C                   : Missing cutoff potential type.
  Defaulting to exp(1/x)/(1-x)^2 type cutoff potential.
  Species C : No 'logarithmic' tag. Using default grid for free atom:
  | Default logarithmic grid data [bohr] : 0.1000E-03 0.1000E+03 0.1012E+01
  Species C : On-site basis accuracy parameter (for Gram-Schmidt orthonormalisation) not specified.
  Using default value basis_acc =  0.1000000E-03.
  Species C                   : Using default innermost maximum threshold i_radial=  2 for radial functions.
  Species C                   : Default cutoff onset for free atom density etc. : 0.40000000E+01 AA.
  Species C                   : Basic radial grid will be enhanced according to radial_multiplier =   2, to contain    69 grid points.
 
  Finished reading input file 'control.in'. Consistency checks are next.
 
  MPI_IN_PLACE appears to work with this MPI implementation.
  | Keeping use_mpi_in_place .true. (see manual).
  Target number of points in a grid batch is not set. Defaulting to  100
  Method for grid partitioning is not set. Defaulting to parallel hash+maxmin partitioning.
  Batch size limit is not set. Defaulting to    200
  By default, will store active basis functions for each batch.
  If in need of memory, prune_basis_once .false. can be used to disable this option.
  communication_type for Hartree potential was not specified.
  Defaulting to calc_hartree .
  Pulay mixer: Number of initial linear mixing iterations not set.
  Defaulting to    0 iterations.
  Work space size for distributed Hartree potential not set.
  Defaulting to   0.200000E+03 MB.
  Algorithm-dependent basis array size parameters:
  | n_max_pulay                         :        5
  Presetting      1001 iterations before the initial mixing cycle
  is restarted anyway using the sc_init_iter criterion / keyword.
  Presetting a factor      1.000 between actual scf density residual
  and density convergence criterion sc_accuracy_rho below which sc_init_iter
  takes no effect.
  Calculation of forces was not defined in control.in. No forces will be calculated.
  Geometry relaxation not requested: no relaxation will be performed.
  No accuracy limit for integral partition fn. given. Defaulting to  0.1000E-14.
  No threshold value for u(r) in integrations given. Defaulting to  0.1000E-05.
  No accuracy for occupation numbers given. Defaulting to  0.1000E-12.
  No threshold value for occupation numbers given. Defaulting to  0.0000E+00.
  No accuracy for fermi level given. Defaulting to  0.1000E-19.
  Maximum # of iterations to find E_F not set. Defaulting to  200.
  Will not use alltoall communication since running on < 1024 CPUs.
  partition_type (choice of integration weights) for integrals was not specified.
  | Using a version of the partition function of Stratmann and coworkers ('stratmann_sparse').
  | At each grid point, the set of atoms used to build the partition table is smoothly restricted to
  | only those atoms whose free-atom density would be non-zero at that grid point.
  Partitioning for Hartree potential was not defined. Using partition_type for integrals.
  | Adjusted default value of keyword multip_moments_threshold to:       0.10000000E-11
  | This value may affect high angular momentum components of the Hartree potential in periodic systems.
  No q(lm)/r^(l+1) cutoff set for long-range Hartree potential.
  | Using default value of  0.100000E-09 .
  | Verify using the multipole_threshold keyword.
  Defaulting to new monopole extrapolation.
  Density update method: automatic selection selected.
 * Warning: use_local_index and/or load_balancing needs packed_matrix_format = index
 * Changing the default setting to packed_matrix_format = index
------------------------------------------------------------


------------------------------------------------------------
          Reading geometry description geometry.in.
------------------------------------------------------------
  Input structure read successfully.
  The structure contains       30 atoms,  and a total of        120.000 electrons.

  Input geometry:
  | No unit cell requested.
  | Atomic structure:
  |       Atom                x [A]            y [A]            z [A]
  |    1: Species C            13.28236800       32.07586400       41.50018800
  |    2: Species C            13.15459200       31.11593600       42.52265600
  |    3: Species C            12.39585600       33.17329600       41.48531900
  |    4: Species C            14.29612800       31.93576700       40.44497400
  |    5: Species C            12.17568000       31.21971200       43.49333300
  |    6: Species H            13.83433900       30.26834600       42.55122500
  |    7: Species C            11.41958400       33.27058600       42.50327600
  |    8: Species C            12.46660800       34.16435600       40.39568800
  |    9: Species C            15.22857600       30.87206300       40.45433000
  |   10: Species C            14.37110400       32.88661400       39.40011800
  |   11: Species H            12.08470600       30.44813800       44.25801200
  |   12: Species C            11.30395200       32.30806300       43.48498000
  |   13: Species H            10.72410200       34.10481500       42.51279900
  |   14: Species C            11.55844800       35.24362700       40.32067400
  |   15: Species C            13.43020800       34.01388100       39.37505800
  |   16: Species H            15.21109900       30.14485200       41.26127800
  |   17: Species C            16.19112000       30.74753200       39.47530000
  |   18: Species C            15.35688000       32.72576200       38.40772200
  |   19: Species H            10.52045300       32.39497600       44.23829800
  |   20: Species H            10.79950100       35.36608200       41.08886200
  |   21: Species C            11.58748800       36.14258600       39.28149800
  |   22: Species C            13.43707200       34.95435100       38.31750500
  |   23: Species H            16.91331800       29.93237100       39.52725800
  |   24: Species C            16.26134400       31.68021800       38.44614800
  |   25: Species H            15.44505600       33.44934000       37.60194400
  |   26: Species H            10.86940800       36.96034100       39.25359800
  |   27: Species C            12.53736000       35.99989400       38.27239600
  |   28: Species H            14.17204800       34.86354700       37.52074800
  |   29: Species H            17.02361800       31.59810600       37.67428500
  |   30: Species H            12.56455200       36.70712800       37.44439700
  |

  | The smallest distance between any two atoms is         1.08615097 AA.
  |
  | The first atom of this pair is atom number                      7 .
  | The second atom of this pair is atom number                    13 .

  Number of empty states per atom not set in control.in - providing a guess from actual geometry.
  | Total number of empty states used during s.c.f. cycle:       72
  If you use a very high smearing, use empty_states (per atom!) in control.in to increase this value.

  Structure-dependent array size parameters: 
  | Maximum number of distinct radial functions  :       18
  | Maximum number of basis functions            :      882
  | Number of Kohn-Sham states (occupied + empty):      132
------------------------------------------------------------

------------------------------------------------------------
          Preparing all fixed parts of the calculation.
------------------------------------------------------------
  Determining machine precision:
    2.225073858507201E-308
  Setting up grids for atomic and cluster calculations.

  Creating wave function, potential, and density for free atoms.

  Species: H

  List of occupied orbitals and eigenvalues:
    n    l              occ      energy [Ha]    energy [eV]
    1    0           1.0000        -0.238386        -6.4868


  Species: C

  List of occupied orbitals and eigenvalues:
    n    l              occ      energy [Ha]    energy [eV]
    1    0           2.0000       -10.049212      -273.4530
    2    0           2.0000        -0.504761       -13.7352
    2    1           2.0000        -0.193631        -5.2690

  Creating fixed part of basis set: Ionic, confined, hydrogenic.
 
  H                    hydrogenic:
 
  List of hydrogenic basis orbitals: 
    n    l      effective z      eigenvalue [eV]  inner max. [A]     outer max. [A]     outer radius [A]   
    2    0         2.100000       -14.9965           0.193243           1.317208           5.373006
    2    1         3.500000       -41.6672           0.602369           0.602369           4.056063
    1    0         0.850000        -9.8292           0.624871           0.624871           5.373006
    2    1         3.700000       -46.5653           0.573622           0.573622           3.910002
    2    0         1.200000        -4.5995           0.334980           2.228188           5.505995
    3    2         7.000000       -74.0753           0.680699           0.680699           3.769201
 
 
  C                    hydrogenic:
 
  List of hydrogenic basis orbitals: 
    n    l      effective z      eigenvalue [eV]  inner max. [A]     outer max. [A]     outer radius [A]   
    2    1         1.700000        -9.8152           1.245706           1.245706           5.401630
    3    2         6.000000       -54.4226           0.792453           0.792453           4.178599
    2    0         4.900000       -81.6681           0.082559           0.562749           3.353238
    4    3         9.800000       -81.6681           0.863254           0.863254           4.028125
    3    1         5.200000       -40.8774           0.305389           1.215618           4.898362
    3    0         4.300000       -27.9508           0.091041           1.610311           5.401630
    5    4        14.400000      -112.8510           0.917666           0.917666           3.883070
    3    2         6.200000       -58.1113           0.763917           0.763917           4.077671
 

  Adding cutoff potential to free-atom effective potential.
  Creating atomic-like basis functions for current effective potential.

  Species H                   :

  List of atomic basis orbitals and eigenvalues:
    n    l      energy [Ha]    energy [eV]    outer radius [A]
    1    0        -0.238386        -6.4868       5.373006


  Species C                   :

  List of atomic basis orbitals and eigenvalues:
    n    l      energy [Ha]    energy [eV]    outer radius [A]
    1    0       -10.049212      -273.4530       1.934409
    2    0        -0.504761       -13.7352       5.271162
    2    1        -0.193631        -5.2690       5.401630

  Assembling full basis from fixed parts.
  | Species H :   atomic orbital   1 s accepted.
  | Species H :    hydro orbital   2 s accepted.
  | Species H :    hydro orbital   1 s accepted.
  | Species H :    hydro orbital   2 s accepted.
  | Species H :    hydro orbital   2 p accepted.
  | Species H :    hydro orbital   2 p accepted.
  | Species H :    hydro orbital   3 d accepted.
  | Species C :   atomic orbital   1 s accepted.
  | Species C :    hydro orbital   2 s accepted.
  | Species C :   atomic orbital   2 s accepted.
  | Species C :    hydro orbital   3 s accepted.
  | Species C :    hydro orbital   3 p accepted.
  | Species C :   atomic orbital   2 p accepted.
  | Species C :    hydro orbital   2 p accepted.
  | Species C :    hydro orbital   3 d accepted.
  | Species C :    hydro orbital   3 d accepted.
  | Species C :    hydro orbital   4 f accepted.
  | Species C :    hydro orbital   5 g accepted.
 
  Basis size parameters after reduction:
  | Total number of radial functions:       18
  | Total number of basis functions :      882
 
  Per-task memory consumption for arrays in subroutine allocate_ext:
  |           4.434496MB.
  Testing on-site integration grid accuracy.
  |  Species  Function  <phi|h_atom|phi> (log., in eV)  <phi|h_atom|phi> (rad., in eV)
           1        1                 -6.4870767962                 -6.4871688290
           1        2                 13.5032046589                 13.5028982997
           1        3                 32.8195184817                 32.8119941656
           1        4                 33.8513856511                 33.7670005767 ***
           1        5                 28.8544614965                 28.8544615203
           1        6                 59.6326952547                 59.6327656460
           1        7                 60.2719308513                 60.2719305949
           2        8               -273.4529726040               -273.4529710464
           2        9                -10.7721037319                -10.7721022101
           2       10                 17.6044132601                 17.6044162063
           2       11                 53.7706460658                 53.7706913770
           2       12                 15.0973290362                 15.0973256030
           2       13                  3.8545134692                  3.8545724687
           2       14                 12.1156992592                 12.1182024431
           2       15                 29.4352039302                 29.4352041816
           2       16                 54.8741144708                 54.8740268729
           2       17                 59.3556032049                 59.3556031382
           2       18                 93.4551837154                 93.4551838009
 * Note: Onsite integrals marked "***" above are less accurate than
 * onsite_accuracy_threshold =    0.03000 eV. Usually, this is harmless.
 * When in doubt, tighten the "radial" and/or "radial_multiplier" flags to check.

  Preparing densities etc. for the partition functions (integrals / Hartree potential).

  Preparations completed.
  max(cpu_time)          :      0.187 s.
  Wall clock time (cpu1) :      0.173 s.
------------------------------------------------------------

------------------------------------------------------------
          Begin self-consistency loop: Initialization.

          Date     :  20210620, Time     :  175039.778
------------------------------------------------------------

  Initializing index lists of integration centers etc. from given atomic structure:
  | Number of centers in hartree potential         :        30
  | Number of centers in hartree multipole         :        30
  | Number of centers in electron density summation:        30
  | Number of centers in basis integrals           :        30
  | Number of centers in integrals                 :        30
  | Number of centers in hamiltonian               :        30
  * Using 56 tasks for Scalapack Eigenvalue solver.
  Detailed listing of tasks and assigned k-points:
  (for non-periodic systems, the "k-point" denotes an internal label only)
   Task     0 k-point     1 on d024
   Task     1 k-point     1 on d024
   Task     2 k-point     1 on d024
   Task     3 k-point     1 on d024
   Task     4 k-point     1 on d024
   Task     5 k-point     1 on d024
   Task     6 k-point     1 on d024
   Task     7 k-point     1 on d024
   Task     8 k-point     1 on d024
   Task     9 k-point     1 on d024
   Task    10 k-point     1 on d024
   Task    11 k-point     1 on d024
   Task    12 k-point     1 on d024
   Task    13 k-point     1 on d024
   Task    14 k-point     1 on d024
   Task    15 k-point     1 on d024
   Task    16 k-point     1 on d024
   Task    17 k-point     1 on d024
   Task    18 k-point     1 on d024
   Task    19 k-point     1 on d024
   Task    20 k-point     1 on d024
   Task    21 k-point     1 on d024
   Task    22 k-point     1 on d024
   Task    23 k-point     1 on d024
   Task    24 k-point     1 on d024
   Task    25 k-point     1 on d024
   Task    26 k-point     1 on d024
   Task    27 k-point     1 on d024
   Task    28 k-point     1 on d024
   Task    29 k-point     1 on d024
   Task    30 k-point     1 on d024
   Task    31 k-point     1 on d024
   Task    32 k-point     1 on d024
   Task    33 k-point     1 on d024
   Task    34 k-point     1 on d024
   Task    35 k-point     1 on d024
   Task    36 k-point     1 on d024
   Task    37 k-point     1 on d024
   Task    38 k-point     1 on d024
   Task    39 k-point     1 on d024
   Task    40 k-point     1 on d024
   Task    41 k-point     1 on d024
   Task    42 k-point     1 on d024
   Task    43 k-point     1 on d024
   Task    44 k-point     1 on d024
   Task    45 k-point     1 on d024
   Task    46 k-point     1 on d024
   Task    47 k-point     1 on d024
   Task    48 k-point     1 on d024
   Task    49 k-point     1 on d024
   Task    50 k-point     1 on d024
   Task    51 k-point     1 on d024
   Task    52 k-point     1 on d024
   Task    53 k-point     1 on d024
   Task    54 k-point     1 on d024
   Task    55 k-point     1 on d024
  Tasks:    56 split into      8 X      7 BLACS grid
  Calculating block size based on n_basis =          882 max_nprow =            8 max_npcol =            7
  ScaLAPACK block size set to:           16
  Allocating        0.115 MB for ovlp
  Allocating        0.115 MB for ham
  Allocating        0.115 MB for eigenvec
  Required Scalapack workspace - INTEGER:            1 REAL:             1
  Partitioning the integration grid into batches with parallel hashing+maxmin method.
  | Number of batches:     4743
  | Maximal batch size:     200
  | Minimal batch size:       3
  | Average batch size:     105.166
  | Standard deviation of batch sizes:      28.284

  Integration load balanced across     56 MPI tasks.
  Work distribution over tasks is as follows:
  Task      0 has       9094 integration points.
  Task      1 has       8884 integration points.
  Task      2 has       8826 integration points.
  Task      3 has       8918 integration points.
  Task      4 has       8912 integration points.
  Task      5 has       8944 integration points.
  Task      6 has       8869 integration points.
  Task      7 has       8934 integration points.
  Task      8 has       8900 integration points.
  Task      9 has       8896 integration points.
  Task     10 has       9050 integration points.
  Task     11 has       8888 integration points.
  Task     12 has       8859 integration points.
  Task     13 has       8782 integration points.
  Task     14 has       8998 integration points.
  Task     15 has       8991 integration points.
  Task     16 has       8861 integration points.
  Task     17 has       8926 integration points.
  Task     18 has       8900 integration points.
  Task     19 has       8972 integration points.
  Task     20 has       8786 integration points.
  Task     21 has       9004 integration points.
  Task     22 has       8970 integration points.
  Task     23 has       8768 integration points.
  Task     24 has       8983 integration points.
  Task     25 has       8911 integration points.
  Task     26 has       8873 integration points.
  Task     27 has       8777 integration points.
  Task     28 has       9018 integration points.
  Task     29 has       8957 integration points.
  Task     30 has       8844 integration points.
  Task     31 has       8979 integration points.
  Task     32 has       8849 integration points.
  Task     33 has       8910 integration points.
  Task     34 has       8813 integration points.
  Task     35 has       8975 integration points.
  Task     36 has       9022 integration points.
  Task     37 has       8829 integration points.
  Task     38 has       9019 integration points.
  Task     39 has       8818 integration points.
  Task     40 has       8896 integration points.
  Task     41 has       8785 integration points.
  Task     42 has       8992 integration points.
  Task     43 has       9006 integration points.
  Task     44 has       8875 integration points.
  Task     45 has       8913 integration points.
  Task     46 has       8900 integration points.
  Task     47 has       8895 integration points.
  Task     48 has       8796 integration points.
  Task     49 has       8926 integration points.
  Task     50 has       8897 integration points.
  Task     51 has       8876 integration points.
  Task     52 has       8939 integration points.
  Task     53 has       8935 integration points.
  Task     54 has       8876 integration points.
  Task     55 has       8788 integration points.
  Initializing partition tables, free-atom densities, potentials, etc. across the integration grid (initialize_grid_storage).
  | initialize_grid_storage: Actual outermost partition radius vs. multipole_radius_free
  | (-- VB: in principle, multipole_radius_free should be larger, hence this output)
  | Species        1: Confinement radius =              6.000000000000000 AA, multipole_radius_free =              6.071692442739658 AA.
  | Species        1: outer_partition_radius set to              6.071692442739658 AA .
  | Species        2: Confinement radius =              6.000000000000000 AA, multipole_radius_free =              6.029870734432609 AA.
  | Species        2: outer_partition_radius set to              6.029870734432609 AA .
  | The sparse table of interatomic distances needs     10.5640 kbyte instead of     7.2000 kbyte of memory.
  | Using the partition_type stratmann_smoother will reduce your memory usage.
  | Net number of integration points:   498804
  | of which are non-zero points    :   405775
  Renormalizing the initial density to the exact electron count on the 3D integration grid.
  | Initial density: Formal number of electrons (from input files) :     120.0000000000
  | Integrated number of electrons on 3D grid     :     119.9993199907
  | Charge integration error                      :      -0.0006800093
  | Normalization factor for density and gradient :       1.0000056668
  Obtaining max. number of non-zero basis functions in each batch (get_n_compute_maxes).
  | Maximal number of non-zero basis functions:      818
  Selecting the method for density update.
  Loop over occupied states selected for charge density update.
  Hamiltonian matrix size:
  | Size of matrix non-packed:                389403
  | Size of matrix packed:          386146
  Allocating        0.931 MB for KS_eigenvector
  use_local_index: Max. local matrix size =       381659
  Task:     0 matrix size:     321121
  Task:     1 matrix size:     361096
  Task:     2 matrix size:     370393
  Task:     3 matrix size:     247835
  Task:     4 matrix size:     294767
  Task:     5 matrix size:     316014
  Task:     6 matrix size:     354738
  Task:     7 matrix size:      91378
  Task:     8 matrix size:     114960
  Task:     9 matrix size:     139656
  Task:    10 matrix size:     155904
  Task:    11 matrix size:      94395
  Task:    12 matrix size:     218770
  Task:    13 matrix size:     150975
  Task:    14 matrix size:     220093
  Task:    15 matrix size:     244501
  Task:    16 matrix size:     310566
  Task:    17 matrix size:      88831
  Task:    18 matrix size:     109278
  Task:    19 matrix size:     101926
  Task:    20 matrix size:     149331
  Task:    21 matrix size:     337531
  Task:    22 matrix size:     234920
  Task:    23 matrix size:     167910
  Task:    24 matrix size:     209977
  Task:    25 matrix size:     310014
  Task:    26 matrix size:     129721
  Task:    27 matrix size:     209509
  Task:    28 matrix size:     225426
  Task:    29 matrix size:     257768
  Task:    30 matrix size:     323874
  Task:    31 matrix size:      84255
  Task:    32 matrix size:     115440
  Task:    33 matrix size:     179700
  Task:    34 matrix size:     108811
  Task:    35 matrix size:     326488
  Task:    36 matrix size:     257072
  Task:    37 matrix size:     190632
  Task:    38 matrix size:     204945
  Task:    39 matrix size:     275989
  Task:    40 matrix size:     157457
  Task:    41 matrix size:     242824
  Task:    42 matrix size:     279617
  Task:    43 matrix size:     201908
  Task:    44 matrix size:     119805
  Task:    45 matrix size:     189157
  Task:    46 matrix size:     259479
  Task:    47 matrix size:     189273
  Task:    48 matrix size:     208809
  Task:    49 matrix size:     347244
  Task:    50 matrix size:     366106
  Task:    51 matrix size:     346977
  Task:    52 matrix size:     381659
  Task:    53 matrix size:     374315
  Task:    54 matrix size:     300426
  Task:    55 matrix size:     368547
  Integrating Hamiltonian matrix: batch-based integration.
  Time summed over all CPUs for integration: real work       67.163 s, elapsed      120.359 s
  Time get_set_sparse_local_matrix_scalapack:     0.010268 s
  Start compute_balanced_batch_distribution
  Done load balancing, time needed:      0.004 s
  Integrating overlap matrix with loadbalancing
  Time summed over all CPUs for integration: real work       18.447 s, elapsed       21.779 s
  Time get_set_full_local_matrix_scalapack:     0.008858 s

  Updating Kohn-Sham eigenvalues and eigenvectors using ELSI and the ELPA eigensolver.
  Overlap matrix is not singular
  | Lowest and highest eigenvalues :  0.11E+02,  0.91E-04
  Finished singularity check of overlap matrix
  | Time :     0.045 s
  Finished Cholesky decomposition
  | Time :     0.010 s
  Finished transformation to standard eigenproblem
  | Time :     0.005 s
  Starting ELPA eigensolver
  Finished solving standard eigenproblem
  | Time :     0.041 s
  Finished back-transformation of eigenvectors
  | Time :     0.002 s

  Obtaining occupation numbers and chemical potential using ELSI.
  | Chemical potential (Fermi level):    -6.56560994 eV
  Writing Kohn-Sham eigenvalues.

  State    Occupation    Eigenvalue [Ha]    Eigenvalue [eV]
      1       2.00000         -10.173000         -276.82140
      2       2.00000         -10.172515         -276.80820
      3       2.00000         -10.171956         -276.79301
      4       2.00000         -10.171901         -276.79151
      5       2.00000         -10.171741         -276.78717
      6       2.00000         -10.171181         -276.77191
      7       2.00000         -10.170751         -276.76023
      8       2.00000         -10.170039         -276.74083
      9       2.00000         -10.170015         -276.74019
     10       2.00000         -10.169833         -276.73524
     11       2.00000         -10.169765         -276.73338
     12       2.00000         -10.169316         -276.72118
     13       2.00000         -10.162300         -276.53024
     14       2.00000         -10.161948         -276.52068
     15       2.00000         -10.161402         -276.50582
     16       2.00000         -10.161046         -276.49613
     17       2.00000         -10.160878         -276.49156
     18       2.00000         -10.160845         -276.49065
     19       2.00000          -1.011584          -27.52661
     20       2.00000          -0.985293          -26.81120
     21       2.00000          -0.984840          -26.79887
     22       2.00000          -0.924965          -25.16957
     23       2.00000          -0.904231          -24.60537
     24       2.00000          -0.903131          -24.57546
     25       2.00000          -0.870020          -23.67445
     26       2.00000          -0.859761          -23.39530
     27       2.00000          -0.859065          -23.37636
     28       2.00000          -0.777677          -21.16168
     29       2.00000          -0.768218          -20.90427
     30       2.00000          -0.767968          -20.89748
     31       2.00000          -0.728692          -19.82873
     32       2.00000          -0.728238          -19.81637
     33       2.00000          -0.698470          -19.00633
     34       2.00000          -0.681758          -18.55157
     35       2.00000          -0.652435          -17.75365
     36       2.00000          -0.635247          -17.28594
     37       2.00000          -0.635031          -17.28008
     38       2.00000          -0.609035          -16.57269
     39       2.00000          -0.608375          -16.55472
     40       2.00000          -0.591942          -16.10756
     41       2.00000          -0.591141          -16.08576
     42       2.00000          -0.572916          -15.58983
     43       2.00000          -0.571121          -15.54099
     44       2.00000          -0.570341          -15.51978
     45       2.00000          -0.554304          -15.08339
     46       2.00000          -0.531367          -14.45923
     47       2.00000          -0.527017          -14.34086
     48       2.00000          -0.514628          -14.00373
     49       2.00000          -0.513649          -13.97710
     50       2.00000          -0.512483          -13.94538
     51       2.00000          -0.495440          -13.48161
     52       2.00000          -0.495104          -13.47246
     53       2.00000          -0.483999          -13.17029
     54       2.00000          -0.483317          -13.15173
     55       2.00000          -0.436458          -11.87664
     56       2.00000          -0.423405          -11.52144
     57       2.00000          -0.422585          -11.49913
     58       2.00000          -0.388395          -10.56876
     59       2.00000          -0.372163          -10.12706
     60       2.00000          -0.371800          -10.11720
     61       0.00000          -0.237263           -6.45625
     62       0.00000          -0.237199           -6.45451
     63       0.00000          -0.229874           -6.25520
     64       0.00000          -0.180816           -4.92025
     65       0.00000          -0.180136           -4.90176
     66       0.00000          -0.162002           -4.40829
     67       0.00000          -0.075344           -2.05022
     68       0.00000          -0.075038           -2.04189
     69       0.00000          -0.071950           -1.95786
     70       0.00000          -0.067803           -1.84501
     71       0.00000          -0.067619           -1.84001
     72       0.00000          -0.039742           -1.08143
     73       0.00000          -0.039283           -1.06895
     74       0.00000          -0.029336           -0.79826
     75       0.00000          -0.008121           -0.22099
     76       0.00000          -0.007804           -0.21235
     77       0.00000          -0.006620           -0.18013
     78       0.00000          -0.001196           -0.03256
     79       0.00000           0.000085            0.00230
     80       0.00000           0.000474            0.01290
     81       0.00000           0.004401            0.11977
     82       0.00000           0.021260            0.57853
     83       0.00000           0.021488            0.58472
     84       0.00000           0.025862            0.70373
     85       0.00000           0.037612            1.02348
     86       0.00000           0.037972            1.03327
     87       0.00000           0.045190            1.22967
     88       0.00000           0.056077            1.52593
     89       0.00000           0.057044            1.55226
     90       0.00000           0.057298            1.55915
     91       0.00000           0.068046            1.85162
     92       0.00000           0.068242            1.85697
     93       0.00000           0.068678            1.86881
     94       0.00000           0.071584            1.94789
     95       0.00000           0.071639            1.94941
     96       0.00000           0.085797            2.33465
     97       0.00000           0.086114            2.34327
     98       0.00000           0.090615            2.46576
     99       0.00000           0.093576            2.54635
    100       0.00000           0.100195            2.72645
    101       0.00000           0.100701            2.74022
    102       0.00000           0.101568            2.76379
    103       0.00000           0.113874            3.09868
    104       0.00000           0.116083            3.15879
    105       0.00000           0.116694            3.17541
    106       0.00000           0.118358            3.22070
    107       0.00000           0.149482            4.06761
    108       0.00000           0.149705            4.07368
    109       0.00000           0.152944            4.16182
    110       0.00000           0.154049            4.19190
    111       0.00000           0.154192            4.19577
    112       0.00000           0.158653            4.31718
    113       0.00000           0.164800            4.48444
    114       0.00000           0.167404            4.55530
    115       0.00000           0.171329            4.66211
    116       0.00000           0.172354            4.68999
    117       0.00000           0.175072            4.76394
    118       0.00000           0.177263            4.82358
    119       0.00000           0.177785            4.83779
    120       0.00000           0.195564            5.32157
    121       0.00000           0.195692            5.32504
    122       0.00000           0.198476            5.40081
    123       0.00000           0.199244            5.42170
    124       0.00000           0.211703            5.76073
    125       0.00000           0.222197            6.04630
    126       0.00000           0.222739            6.06104
    127       0.00000           0.227039            6.17804
    128       0.00000           0.230055            6.26012
    129       0.00000           0.235135            6.39836
    130       0.00000           0.235386            6.40519
    131       0.00000           0.246596            6.71021
    132       0.00000           0.247163            6.72566

  Highest occupied state (VBM) at    -10.11720488 eV
  | Occupation number:      2.00000000

  Lowest unoccupied state (CBM) at    -6.45625077 eV
  | Occupation number:      0.00000000

  Overall HOMO-LUMO gap:      3.66095411 eV.
  Calculating total energy contributions from superposition of free atom densities.

  Total energy components:
  | Sum of eigenvalues            :        -420.07608512 Ha      -11430.85187158 eV
  | XC energy correction          :         -99.54472736 Ha       -2708.74985102 eV
  | XC potential correction       :         127.86134064 Ha        3479.28410284 eV
  | Free-atom electrostatic energy:        -301.98060330 Ha       -8217.31030802 eV
  | Hartree energy correction     :           0.00000000 Ha           0.00000000 eV
  | Entropy correction            :           0.00000000 Ha           0.00000000 eV
  | ---------------------------
  | Total energy                  :        -693.74007514 Ha      -18877.62792778 eV
  | Total energy, T -> 0          :        -693.74007514 Ha      -18877.62792778 eV  <-- do not rely on this value for anything but (periodic) metals
  | Electronic free energy        :        -693.74007514 Ha      -18877.62792778 eV

  Derived energy quantities:
  | Kinetic energy                :         686.86308652 Ha       18690.49554615 eV
  | Electrostatic energy          :       -1281.05843431 Ha      -34859.37362291 eV
  | Energy correction for multipole
  | error in Hartree potential    :           0.00000000 Ha           0.00000000 eV
  | Sum of eigenvalues per atom                           :        -381.02839572 eV
  | Total energy (T->0) per atom                          :        -629.25426426 eV  <-- do not rely on this value for anything but (periodic) metals
  | Electronic free energy per atom                       :        -629.25426426 eV
  Initialize hartree_potential_storage
  Max. number of atoms included in rho_multipole:           30

  End scf initialization - timings             :  max(cpu_time)    wall_clock(cpu1)
  | Time for scf. initialization               :        3.472 s           3.531 s
  | Boundary condition initialization          :        0.001 s           0.003 s
  | Integration                                :        2.570 s           2.576 s
  | Solution of K.-S. eqns.                    :        0.105 s           0.122 s
  | Grid partitioning                          :        0.414 s           0.418 s
  | Preloading free-atom quantities on grid    :        0.013 s           0.016 s
  | Free-atom superposition energy             :        0.031 s           0.031 s
  | Total energy evaluation                    :        0.001 s           0.004 s

  Partial memory accounting:
  | Current value for overall tracked memory usage on task 0  :           2.561 MB
  | Peak value for overall tracked memory usage on task 0     :          22.281 MB after allocating zora_vector2
  | Largest tracked array allocation on task 0 so far         :           5.353 MB  when allocating hamiltonian_shell
  Note:  These values currently only include a subset of arrays which are explicitly tracked.
  The "true" memory usage will be greater.
------------------------------------------------------------

------------------------------------------------------------
          Begin self-consistency iteration #    1

  Date     :  20210620, Time     :  175043.312
------------------------------------------------------------
  Evaluating new KS density.
  Integration grid: deviation in total charge (<rho> - N_e) =   7.105427E-14
  Pulay mixing of updated and previous charge densities.

  Evaluating partitioned Hartree potential by multipole expansion.
  | Analytical far-field extrapolation by fixed multipoles:
  | Hartree multipole sum: apparent total charge =  -0.685471E-03
  Summing up the Hartree potential with load balancing.
  Time summed over all CPUs for potential: real work       10.848 s, elapsed       17.095 s
  | RMS charge density error from multipole expansion :   0.101994E-01

  Start compute_balanced_batch_distribution
  Done load balancing, time needed:      0.003 s
  Integrating Hamiltonian matrix: batch-based integration with load balancing
  Time summed over all CPUs for integration: real work       73.858 s, elapsed       80.639 s
  Time get_set_full_local_matrix_scalapack:     0.008486 s
  Start compute_balanced_batch_distribution
  Done load balancing, time needed:      0.003 s

  Updating Kohn-Sham eigenvalues and eigenvectors using ELSI and the ELPA eigensolver.
  Finished transformation to standard eigenproblem
  | Time :     0.004 s
  Starting ELPA eigensolver
  Finished solving standard eigenproblem
  | Time :     0.039 s
  Finished back-transformation of eigenvectors
  | Time :     0.002 s

  Obtaining occupation numbers and chemical potential using ELSI.
  | Chemical potential (Fermi level):    -4.33066784 eV
  Writing Kohn-Sham eigenvalues.

  State    Occupation    Eigenvalue [Ha]    Eigenvalue [eV]
      1       2.00000          -9.981499         -271.61041
      2       2.00000          -9.981371         -271.60693
      3       2.00000          -9.981188         -271.60194
      4       2.00000          -9.980811         -271.59170
      5       2.00000          -9.980471         -271.58243
      6       2.00000          -9.979857         -271.56573
      7       2.00000          -9.949619         -270.74290
      8       2.00000          -9.949337         -270.73525
      9       2.00000          -9.949320         -270.73478
     10       2.00000          -9.949218         -270.73200
     11       2.00000          -9.949173         -270.73077
     12       2.00000          -9.948031         -270.69971
     13       2.00000          -9.943633         -270.58003
     14       2.00000          -9.943071         -270.56472
     15       2.00000          -9.942768         -270.55649
     16       2.00000          -9.942429         -270.54725
     17       2.00000          -9.942066         -270.53739
     18       2.00000          -9.941518         -270.52246
     19       2.00000          -0.867808          -23.61427
     20       2.00000          -0.830645          -22.60301
     21       2.00000          -0.830536          -22.60003
     22       2.00000          -0.775684          -21.10742
     23       2.00000          -0.760271          -20.68802
     24       2.00000          -0.759446          -20.66558
     25       2.00000          -0.719483          -19.57813
     26       2.00000          -0.711575          -19.36294
     27       2.00000          -0.711140          -19.35111
     28       2.00000          -0.641944          -17.46818
     29       2.00000          -0.625091          -17.00960
     30       2.00000          -0.624913          -17.00474
     31       2.00000          -0.591452          -16.09424
     32       2.00000          -0.591024          -16.08257
     33       2.00000          -0.557064          -15.15847
     34       2.00000          -0.552435          -15.03253
     35       2.00000          -0.506512          -13.78290
     36       2.00000          -0.506368          -13.77896
     37       2.00000          -0.498947          -13.57703
     38       2.00000          -0.478904          -13.03163
     39       2.00000          -0.478033          -13.00795
     40       2.00000          -0.447332          -12.17253
     41       2.00000          -0.446914          -12.16114
     42       2.00000          -0.437411          -11.90256
     43       2.00000          -0.437171          -11.89603
     44       2.00000          -0.433345          -11.79193
     45       2.00000          -0.432238          -11.76181
     46       2.00000          -0.414222          -11.27155
     47       2.00000          -0.393071          -10.69601
     48       2.00000          -0.382677          -10.41317
     49       2.00000          -0.379086          -10.31546
     50       2.00000          -0.378088          -10.28830
     51       2.00000          -0.370561          -10.08348
     52       2.00000          -0.370422          -10.07971
     53       2.00000          -0.346891           -9.43939
     54       2.00000          -0.346015           -9.41554
     55       2.00000          -0.310934           -8.46094
     56       2.00000          -0.300475           -8.17634
     57       2.00000          -0.299894           -8.16054
     58       2.00000          -0.260203           -7.08049
     59       2.00000          -0.246723           -6.71368
     60       2.00000          -0.246492           -6.70739
     61       0.00000          -0.114373           -3.11224
     62       0.00000          -0.114309           -3.11050
     63       0.00000          -0.110761           -3.01397
     64       0.00000          -0.059382           -1.61586
     65       0.00000          -0.058638           -1.59563
     66       0.00000          -0.036242           -0.98619
     67       0.00000          -0.028168           -0.76648
     68       0.00000          -0.022661           -0.61663
     69       0.00000          -0.022560           -0.61389
     70       0.00000          -0.001852           -0.05040
     71       0.00000          -0.001668           -0.04540
     72       0.00000           0.015196            0.41350
     73       0.00000           0.021965            0.59770
     74       0.00000           0.039292            1.06919
     75       0.00000           0.039534            1.07577
     76       0.00000           0.047188            1.28404
     77       0.00000           0.047600            1.29526
     78       0.00000           0.055502            1.51028
     79       0.00000           0.070427            1.91640
     80       0.00000           0.070612            1.92146
     81       0.00000           0.084132            2.28934
     82       0.00000           0.084472            2.29859
     83       0.00000           0.092659            2.52137
     84       0.00000           0.110887            3.01739
     85       0.00000           0.113292            3.08283
     86       0.00000           0.113821            3.09722
     87       0.00000           0.116177            3.16134
     88       0.00000           0.116532            3.17100
     89       0.00000           0.121342            3.30188
     90       0.00000           0.130779            3.55867
     91       0.00000           0.132797            3.61360
     92       0.00000           0.133494            3.63256
     93       0.00000           0.144322            3.92720
     94       0.00000           0.144631            3.93562
     95       0.00000           0.148040            4.02839
     96       0.00000           0.149090            4.05695
     97       0.00000           0.149577            4.07021
     98       0.00000           0.149843            4.07743
     99       0.00000           0.155657            4.23563
    100       0.00000           0.156437            4.25688
    101       0.00000           0.159505            4.34035
    102       0.00000           0.176708            4.80847
    103       0.00000           0.190332            5.17920
    104       0.00000           0.196697            5.35239
    105       0.00000           0.198628            5.40495
    106       0.00000           0.201343            5.47882
    107       0.00000           0.201914            5.49435
    108       0.00000           0.209936            5.71265
    109       0.00000           0.210485            5.72758
    110       0.00000           0.214054            5.82472
    111       0.00000           0.223533            6.08264
    112       0.00000           0.224305            6.10365
    113       0.00000           0.225175            6.12732
    114       0.00000           0.225286            6.13034
    115       0.00000           0.229213            6.23721
    116       0.00000           0.229999            6.25859
    117       0.00000           0.236742            6.44206
    118       0.00000           0.265603            7.22743
    119       0.00000           0.265962            7.23719
    120       0.00000           0.272171            7.40615
    121       0.00000           0.272757            7.42209
    122       0.00000           0.280143            7.62308
    123       0.00000           0.280663            7.63723
    124       0.00000           0.281868            7.67003
    125       0.00000           0.282426            7.68520
    126       0.00000           0.298389            8.11959
    127       0.00000           0.298927            8.13421
    128       0.00000           0.311124            8.46611
    129       0.00000           0.317752            8.64647
    130       0.00000           0.321482            8.74798
    131       0.00000           0.323246            8.79598
    132       0.00000           0.323917            8.81424

  Highest occupied state (VBM) at     -6.70738776 eV
  | Occupation number:      2.00000000

  Lowest unoccupied state (CBM) at    -3.11223591 eV
  | Occupation number:      0.00000000

  Overall HOMO-LUMO gap:      3.59515185 eV.

  Total energy components:
  | Sum of eigenvalues            :        -401.06964434 Ha      -10913.66030331 eV
  | XC energy correction          :        -100.85527677 Ha       -2744.41171499 eV
  | XC potential correction       :         129.56269791 Ha        3525.58038965 eV
  | Free-atom electrostatic energy:        -301.98060330 Ha       -8217.31030802 eV
  | Hartree energy correction     :         -18.76625661 Ha        -510.65582411 eV
  | Entropy correction            :           0.00000000 Ha           0.00000000 eV
  | ---------------------------
  | Total energy                  :        -693.10908310 Ha      -18860.45776078 eV
  | Total energy, T -> 0          :        -693.10908310 Ha      -18860.45776078 eV  <-- do not rely on this value for anything but (periodic) metals
  | Electronic free energy        :        -693.10908310 Ha      -18860.45776078 eV

  Derived energy quantities:
  | Kinetic energy                :         692.71491543 Ha       18849.73191270 eV
  | Electrostatic energy          :       -1284.96872177 Ha      -34965.77795849 eV
  | Energy correction for multipole
  | error in Hartree potential    :          -0.04343472 Ha          -1.18191875 eV
  | Sum of eigenvalues per atom                           :        -363.78867678 eV
  | Total energy (T->0) per atom                          :        -628.68192536 eV  <-- do not rely on this value for anything but (periodic) metals
  | Electronic free energy per atom                       :        -628.68192536 eV

  Self-consistency convergence accuracy:
  | Change of charge density      :  0.8508E+00
  | Change of sum of eigenvalues  :  0.5172E+03 eV
  | Change of total energy        :  0.1717E+02 eV

  End self-consistency iteration #     1       :  max(cpu_time)    wall_clock(cpu1)
  | Time for this iteration                    :        2.364 s           2.370 s
  | Charge density update                      :        0.522 s           0.523 s
  | Density mixing                             :        0.002 s           0.003 s
  | Hartree multipole update                   :        0.008 s           0.009 s
  | Hartree multipole summation                :        0.312 s           0.314 s
  | Integration                                :        1.443 s           1.443 s
  | Solution of K.-S. eqns.                    :        0.067 s           0.067 s
  | Total energy evaluation                    :        0.000 s           0.000 s

  Partial memory accounting:
  | Current value for overall tracked memory usage on task 0  :           2.561 MB
  | Peak value for overall tracked memory usage on task 0     :          22.606 MB after allocating zora_vector2
  | Largest tracked array allocation on task 0 so far         :           5.353 MB  when allocating hamiltonian_shell
  Note:  These values currently only include a subset of arrays which are explicitly tracked.
  The "true" memory usage will be greater.
------------------------------------------------------------

------------------------------------------------------------
          Begin self-consistency iteration #    2

  Date     :  20210620, Time     :  175045.686
------------------------------------------------------------
  Evaluating new KS density.
  Integration grid: deviation in total charge (<rho> - N_e) =   5.684342E-14
  Pulay mixing of updated and previous charge densities.

  Evaluating partitioned Hartree potential by multipole expansion.
  | Analytical far-field extrapolation by fixed multipoles:
  | Hartree multipole sum: apparent total charge =  -0.685254E-03
  Summing up the Hartree potential with load balancing.
  Time summed over all CPUs for potential: real work       10.939 s, elapsed       13.020 s
  | RMS charge density error from multipole expansion :   0.178570E-01

  Integrating Hamiltonian matrix: batch-based integration with load balancing
  Time summed over all CPUs for integration: real work       75.187 s, elapsed       78.304 s
  Time get_set_full_local_matrix_scalapack:     0.008387 s

  Updating Kohn-Sham eigenvalues and eigenvectors using ELSI and the ELPA eigensolver.
  Finished transformation to standard eigenproblem
  | Time :     0.005 s
  Starting ELPA eigensolver
  Finished solving standard eigenproblem
  | Time :     0.039 s
  Finished back-transformation of eigenvectors
  | Time :     0.001 s

  Obtaining occupation numbers and chemical potential using ELSI.
  | Chemical potential (Fermi level):    -3.46522755 eV
  Highest occupied state (VBM) at     -5.61407323 eV
  | Occupation number:      2.00000000

  Lowest unoccupied state (CBM) at    -1.99896467 eV
  | Occupation number:      0.00000000

  Overall HOMO-LUMO gap:      3.61510855 eV.

  Checking to see if s.c.f. parameters should be adjusted.

  Total energy components:
  | Sum of eigenvalues            :        -394.71793147 Ha      -10740.82140221 eV
  | XC energy correction          :        -101.41627257 Ha       -2759.67718756 eV
  | XC potential correction       :         130.28389598 Ha        3545.20518775 eV
  | Free-atom electrostatic energy:        -301.98060330 Ha       -8217.31030802 eV
  | Hartree energy correction     :         -25.19846347 Ha        -685.68507838 eV
  | Entropy correction            :           0.00000000 Ha           0.00000000 eV
  | ---------------------------
  | Total energy                  :        -693.02937483 Ha      -18858.28878842 eV
  | Total energy, T -> 0          :        -693.02937483 Ha      -18858.28878842 eV  <-- do not rely on this value for anything but (periodic) metals
  | Electronic free energy        :        -693.02937483 Ha      -18858.28878842 eV

  Derived energy quantities:
  | Kinetic energy                :         692.68589824 Ha       18848.94231472 eV
  | Electrostatic energy          :       -1284.29900050 Ha      -34947.55391558 eV
  | Energy correction for multipole
  | error in Hartree potential    :          -0.07002245 Ha          -1.90540777 eV
  | Sum of eigenvalues per atom                           :        -358.02738007 eV
  | Total energy (T->0) per atom                          :        -628.60962628 eV  <-- do not rely on this value for anything but (periodic) metals
  | Electronic free energy per atom                       :        -628.60962628 eV

  Self-consistency convergence accuracy:
  | Change of charge density      :  0.4175E+00
  | Change of sum of eigenvalues  :  0.1728E+03 eV
  | Change of total energy        :  0.2169E+01 eV

  End self-consistency iteration #     2       :  max(cpu_time)    wall_clock(cpu1)
  | Time for this iteration                    :        2.241 s           2.248 s
  | Charge density update                      :        0.522 s           0.522 s
  | Density mixing                             :        0.003 s           0.007 s
  | Hartree multipole update                   :        0.006 s           0.007 s
  | Hartree multipole summation                :        0.235 s           0.235 s
  | Integration                                :        1.401 s           1.401 s
  | Solution of K.-S. eqns.                    :        0.070 s           0.070 s
  | Total energy evaluation                    :        0.001 s           0.003 s

  Partial memory accounting:
  | Current value for overall tracked memory usage on task 0  :           2.561 MB
  | Peak value for overall tracked memory usage on task 0     :          22.654 MB after allocating zora_vector2
  | Largest tracked array allocation on task 0 so far         :           5.353 MB  when allocating hamiltonian_shell
  Note:  These values currently only include a subset of arrays which are explicitly tracked.
  The "true" memory usage will be greater.
------------------------------------------------------------

------------------------------------------------------------
          Begin self-consistency iteration #    3

  Date     :  20210620, Time     :  175047.938
------------------------------------------------------------
  Evaluating new KS density.
  Integration grid: deviation in total charge (<rho> - N_e) =   9.947598E-14
  Pulay mixing of updated and previous charge densities.

  Evaluating partitioned Hartree potential by multipole expansion.
  | Analytical far-field extrapolation by fixed multipoles:
  | Hartree multipole sum: apparent total charge =  -0.684462E-03
  Summing up the Hartree potential with load balancing.
  Time summed over all CPUs for potential: real work       10.938 s, elapsed       13.027 s
  | RMS charge density error from multipole expansion :   0.214268E-01

  Integrating Hamiltonian matrix: batch-based integration with load balancing
  Time summed over all CPUs for integration: real work       75.039 s, elapsed       78.316 s
  Time get_set_full_local_matrix_scalapack:     0.008366 s

  Updating Kohn-Sham eigenvalues and eigenvectors using ELSI and the ELPA eigensolver.
  Finished transformation to standard eigenproblem
  | Time :     0.005 s
  Starting ELPA eigensolver
  Finished solving standard eigenproblem
  | Time :     0.039 s
  Finished back-transformation of eigenvectors
  | Time :     0.002 s

  Obtaining occupation numbers and chemical potential using ELSI.
  | Chemical potential (Fermi level):    -3.52546288 eV
  Highest occupied state (VBM) at     -5.68073448 eV
  | Occupation number:      2.00000000

  Lowest unoccupied state (CBM) at    -2.05753493 eV
  | Occupation number:      0.00000000

  Overall HOMO-LUMO gap:      3.62319956 eV.

  Total energy components:
  | Sum of eigenvalues            :        -394.80941833 Ha      -10743.31088636 eV
  | XC energy correction          :        -101.49621511 Ha       -2761.85253462 eV
  | XC potential correction       :         130.38324224 Ha        3547.90853705 eV
  | Free-atom electrostatic energy:        -301.98060330 Ha       -8217.31030802 eV
  | Hartree energy correction     :         -25.12340497 Ha        -683.64263259 eV
  | Entropy correction            :           0.00000000 Ha           0.00000000 eV
  | ---------------------------
  | Total energy                  :        -693.02639947 Ha      -18858.20782453 eV
  | Total energy, T -> 0          :        -693.02639947 Ha      -18858.20782453 eV  <-- do not rely on this value for anything but (periodic) metals
  | Electronic free energy        :        -693.02639947 Ha      -18858.20782453 eV

  Derived energy quantities:
  | Kinetic energy                :         691.27327240 Ha       18810.50280986 eV
  | Electrostatic energy          :       -1282.80345676 Ha      -34906.85809977 eV
  | Energy correction for multipole
  | error in Hartree potential    :          -0.07970114 Ha          -2.16877834 eV
  | Sum of eigenvalues per atom                           :        -358.11036288 eV
  | Total energy (T->0) per atom                          :        -628.60692748 eV  <-- do not rely on this value for anything but (periodic) metals
  | Electronic free energy per atom                       :        -628.60692748 eV

  Self-consistency convergence accuracy:
  | Change of charge density      :  0.1492E+00
  | Change of sum of eigenvalues  : -0.2489E+01 eV
  | Change of total energy        :  0.8096E-01 eV

  End self-consistency iteration #     3       :  max(cpu_time)    wall_clock(cpu1)
  | Time for this iteration                    :        2.235 s           2.232 s
  | Charge density update                      :        0.520 s           0.516 s
  | Density mixing                             :        0.003 s           0.004 s
  | Hartree multipole update                   :        0.007 s           0.007 s
  | Hartree multipole summation                :        0.235 s           0.235 s
  | Integration                                :        1.401 s           1.401 s
  | Solution of K.-S. eqns.                    :        0.066 s           0.066 s
  | Total energy evaluation                    :        0.000 s           0.002 s

  Partial memory accounting:
  | Current value for overall tracked memory usage on task 0  :           2.561 MB
  | Peak value for overall tracked memory usage on task 0     :          22.654 MB after allocating zora_vector2
  | Largest tracked array allocation on task 0 so far         :           5.353 MB  when allocating hamiltonian_shell
  Note:  These values currently only include a subset of arrays which are explicitly tracked.
  The "true" memory usage will be greater.
------------------------------------------------------------

------------------------------------------------------------
          Begin self-consistency iteration #    4

  Date     :  20210620, Time     :  175050.174
------------------------------------------------------------
  Evaluating new KS density.
  Integration grid: deviation in total charge (<rho> - N_e) =   5.684342E-14
  Pulay mixing of updated and previous charge densities.

  Evaluating partitioned Hartree potential by multipole expansion.
  | Analytical far-field extrapolation by fixed multipoles:
  | Hartree multipole sum: apparent total charge =  -0.684576E-03
  Summing up the Hartree potential with load balancing.
  Time summed over all CPUs for potential: real work       10.966 s, elapsed       13.035 s
  | RMS charge density error from multipole expansion :   0.218858E-01

  Integrating Hamiltonian matrix: batch-based integration with load balancing
  Time summed over all CPUs for integration: real work       75.202 s, elapsed       78.503 s
  Time get_set_full_local_matrix_scalapack:     0.008422 s

[...]
  | Solution of K.-S. eqns.                    :        0.067 s           0.067 s
  | Total energy evaluation                    :        0.002 s           0.004 s

  Partial memory accounting:
  | Current value for overall tracked memory usage on task 0  :           2.561 MB
  | Peak value for overall tracked memory usage on task 0     :          22.654 MB after allocating zora_vector2
  | Largest tracked array allocation on task 0 so far         :           5.353 MB  when allocating hamiltonian_shell
  Note:  These values currently only include a subset of arrays which are explicitly tracked.
  The "true" memory usage will be greater.
------------------------------------------------------------
  |------------------------------------------------------
  | Final ELSI Output
  |------------------------------------------------------
  |
  | Physical Properties
  |   Number of electrons       :        0.12000000E+03
  |   Number of spins           :                     1
  |   Number of k-points        :                     1
  |   Number of states          :                   132
  |
  | Matrix Properties
  |   Matrix format             :           BLACS_DENSE
  |   Number of basis functions :                   882
  |   Matrix sparsity           :        0.12245412E-01
  |
  | Computational Details
  |   Parallel mode             :            MULTI_PROC
  |   Number of MPI tasks       :                    56
  |   Solver requested          :                  ELPA
  |   Number of ELSI calls      :                    15
  |
  |------------------------------------------------------
  | ELSI Project (c)  elsi-interchange.org
  |------------------------------------------------------

------------------------------------------------------------
          Post-processing: scaled ZORA corrections to eigenvalues and total energy.

  Date     :  20210620, Time     :  175114.844
------------------------------------------------------------
  Computing correction matrix for scaled ZORA eigenvalues.
  Evaluating scaled zora correction for each Kohn-Sham eigenstate.
  Evaluating scaled zora correction for each Kohn-Sham eigenstate.
  Time get_set_sparse_local_matrix_scalapack:     1.349670 s
  Writing Kohn-Sham eigenvalues.

  State    Occupation    Eigenvalue [Ha]    Eigenvalue [eV]
      1       2.00000          -9.911280         -269.69965
      2       2.00000          -9.911202         -269.69754
      3       2.00000          -9.911041         -269.69315
      4       2.00000          -9.910776         -269.68593
      5       2.00000          -9.910606         -269.68131
      6       2.00000          -9.910322         -269.67357
      7       2.00000          -9.897085         -269.31337
      8       2.00000          -9.897006         -269.31122
      9       2.00000          -9.896989         -269.31078
     10       2.00000          -9.896938         -269.30940
     11       2.00000          -9.896935         -269.30932
     12       2.00000          -9.896250         -269.29067
     13       2.00000          -9.896162         -269.28827
     14       2.00000          -9.895708         -269.27592
     15       2.00000          -9.895632         -269.27385
     16       2.00000          -9.895450         -269.26890
     17       2.00000          -9.895178         -269.26149
     18       2.00000          -9.894733         -269.24940
     19       2.00000          -0.814534          -22.16461
     20       2.00000          -0.779769          -21.21860
     21       2.00000          -0.779665          -21.21576
     22       2.00000          -0.723175          -19.67858
     23       2.00000          -0.705396          -19.19480
     24       2.00000          -0.704560          -19.17204
     25       2.00000          -0.664331          -18.07737
     26       2.00000          -0.656259          -17.85771
     27       2.00000          -0.655798          -17.84516
     28       2.00000          -0.584043          -15.89261
     29       2.00000          -0.567619          -15.44570
     30       2.00000          -0.567373          -15.43901
     31       2.00000          -0.531560          -14.46449
     32       2.00000          -0.531195          -14.45456
     33       2.00000          -0.497780          -13.54528
     34       2.00000          -0.495261          -13.47674
     35       2.00000          -0.448003          -12.19078
     36       2.00000          -0.447808          -12.18547
     37       2.00000          -0.439928          -11.97104
     38       2.00000          -0.417825          -11.36960
     39       2.00000          -0.416967          -11.34624
     40       2.00000          -0.387677          -10.54923
     41       2.00000          -0.387165          -10.53529
     42       2.00000          -0.378392          -10.29658
     43       2.00000          -0.378163          -10.29033
     44       2.00000          -0.375112          -10.20732
     45       2.00000          -0.373795          -10.17148
     46       2.00000          -0.369059          -10.04262
     47       2.00000          -0.333049           -9.06273
     48       2.00000          -0.331864           -9.03049
     49       2.00000          -0.331807           -9.02893
     50       2.00000          -0.321357           -8.74457
     51       2.00000          -0.318183           -8.65820
     52       2.00000          -0.317281           -8.63365
     53       2.00000          -0.284021           -7.72861
     54       2.00000          -0.283145           -7.70476
     55       2.00000          -0.272100           -7.40421
     56       2.00000          -0.260044           -7.07617
     57       2.00000          -0.259426           -7.05934
     58       2.00000          -0.219709           -5.97858
     59       2.00000          -0.205580           -5.59411
     60       2.00000          -0.205317           -5.58695
     61       0.00000          -0.072178           -1.96407
     62       0.00000          -0.072127           -1.96267
     63       0.00000          -0.070780           -1.92601
     64       0.00000          -0.017318           -0.47124
     65       0.00000          -0.016638           -0.45274
     66       0.00000          -0.005929           -0.16133
     67       0.00000           0.000108            0.00295
     68       0.00000           0.000277            0.00755
     69       0.00000           0.005723            0.15572
     70       0.00000           0.019137            0.52076
     71       0.00000           0.019284            0.52475
     72       0.00000           0.037093            1.00935
     73       0.00000           0.041351            1.12521
     74       0.00000           0.061770            1.68084
     75       0.00000           0.061890            1.68410
     76       0.00000           0.079994            2.17675
     77       0.00000           0.090563            2.46433
     78       0.00000           0.091293            2.48422
     79       0.00000           0.092861            2.52689
     80       0.00000           0.093056            2.53217
     81       0.00000           0.107410            2.92278
     82       0.00000           0.110623            3.01020
     83       0.00000           0.111119            3.02371
     84       0.00000           0.130484            3.55065
     85       0.00000           0.130722            3.55711
     86       0.00000           0.140995            3.83668
     87       0.00000           0.142440            3.87599
     88       0.00000           0.149315            4.06306
     89       0.00000           0.149610            4.07110
     90       0.00000           0.162453            4.42058
     91       0.00000           0.162683            4.42683
     92       0.00000           0.174262            4.74191
     93       0.00000           0.175116            4.76516
     94       0.00000           0.176541            4.80392
     95       0.00000           0.178296            4.85169
     96       0.00000           0.180005            4.89817
     97       0.00000           0.182236            4.95891
     98       0.00000           0.182704            4.97163
     99       0.00000           0.186087            5.06370
    100       0.00000           0.194425            5.29058
    101       0.00000           0.195400            5.31712
    102       0.00000           0.209482            5.70030
    103       0.00000           0.215393            5.86114
    104       0.00000           0.230497            6.27215
    105       0.00000           0.235773            6.41571
    106       0.00000           0.236237            6.42835
    107       0.00000           0.237837            6.47188
    108       0.00000           0.242616            6.60191
    109       0.00000           0.242957            6.61119
    110       0.00000           0.243664            6.63044
    111       0.00000           0.243772            6.63336
    112       0.00000           0.247705            6.74038
    113       0.00000           0.255001            6.93893
    114       0.00000           0.258393            7.03124
    115       0.00000           0.259173            7.05245
    116       0.00000           0.261296            7.11022
    117       0.00000           0.271655            7.39211
    118       0.00000           0.297064            8.08353
    119       0.00000           0.297449            8.09399
    120       0.00000           0.305073            8.30145
    121       0.00000           0.305587            8.31545
    122       0.00000           0.307192            8.35912
    123       0.00000           0.307519            8.36802
    124       0.00000           0.312786            8.51134
    125       0.00000           0.313326            8.52605
    126       0.00000           0.340935            9.27730
    127       0.00000           0.343507            9.34729
    128       0.00000           0.343830            9.35609
    129       0.00000           0.348265            9.47678
    130       0.00000           0.351918            9.57617
    131       0.00000           0.353357            9.61533
    132       0.00000           0.354856            9.65613

  Highest occupied state (VBM) at     -5.58694928 eV
  | Occupation number:      2.00000000

  Lowest unoccupied state (CBM) at    -1.96407022 eV
  | Occupation number:      0.00000000

  Overall HOMO-LUMO gap:      3.62287906 eV.

  Total energy components:
  | Sum of eigenvalues            :        -394.48077446 Ha      -10734.36803162 eV
  | XC energy correction          :        -101.45519887 Ha       -2760.73642607 eV
  | XC potential correction       :         130.32965359 Ha        3546.45031571 eV
  | Free-atom electrostatic energy:        -301.98060330 Ha       -8217.31030802 eV
  | Hartree energy correction     :         -25.28408662 Ha        -688.01500266 eV
  | Entropy correction            :           0.00000000 Ha           0.00000000 eV
  | ---------------------------
  | Total energy                  :        -692.87100966 Ha      -18853.97945265 eV
  | Total energy, T -> 0          :        -692.87100966 Ha      -18853.97945265 eV  <-- do not rely on this value for anything but (periodic) metals
  | Electronic free energy        :        -692.87100966 Ha      -18853.97945265 eV

  Derived energy quantities:
  | Kinetic energy                :         690.82383217 Ha       18798.27291890 eV
  | Electrostatic energy          :       -1282.23964295 Ha      -34891.51594548 eV
  | Energy correction for multipole
  | error in Hartree potential    :          -0.08117989 Ha          -2.20901722 eV
  | Sum of eigenvalues per atom                           :        -357.81226772 eV
  | Total energy (T->0) per atom                          :        -628.46598176 eV  <-- do not rely on this value for anything but (periodic) metals
  | Electronic free energy per atom                       :        -628.46598176 eV
  End evaluation of scaled ZORA corrections.
  | Time for scaled ZORA corrections           :        2.474 s           2.487 s
------------------------------------------------------------

  Energy and forces in a compact form:
  | Total energy uncorrected      :         -0.188539794526507E+05 eV
  | Total energy corrected        :         -0.188539794526507E+05 eV  <-- do not rely on this value for anything but (periodic) metals
  | Electronic free energy        :         -0.188539794526507E+05 eV

  ------------------------------------ 
  Start decomposition of the XC Energy 
  ------------------------------------ 
  X and C from original XC functional choice 
  Hartree-Fock Energy :          0.000000000 Ha              0.000000000 eV
  X Energy            :        -97.449851812 Ha          -2651.745387124 eV
  C Energy            :         -4.005347062 Ha           -108.991038951 eV
  Total XC Energy     :       -101.455198874 Ha          -2760.736426075 eV
  ------------------------------------ 
  LDA X and C from self-consistent density 
  X Energy LDA        :        -88.241625983 Ha          -2401.176813530 eV
  C Energy LDA        :         -7.728262295 Ha           -210.296716814 eV
  ------------------------------------ 
  End decomposition of the XC Energy 
  ------------------------------------ 

------------------------------------------------------------

------------------------------------------------------------------------------
  Final output of selected total energy values:

  The following output summarizes some interesting total energy values
  at the end of a run (AFTER all relaxation, molecular dynamics, etc.).

  | Total energy of the DFT / Hartree-Fock s.c.f. calculation      :         -18853.979452651 eV
  | Final zero-broadening corrected energy (caution - metals only) :         -18853.979452651 eV
  | For reference only, the value of 1 Hartree used in FHI-aims is :             27.211384500 eV

  Before relying on these values, please be sure to understand exactly which
  total energy value is referred to by a given number. Different objects may
  all carry the same name 'total energy'. Definitions:

  Total energy of the DFT / Hartree-Fock s.c.f. calculation:
  | Note that this energy does not include ANY quantities calculated after the
  | s.c.f. cycle, in particular not ANY RPA, MP2, etc. many-body perturbation terms.
  | Scalar relativistic effects have been included in the 'scaled ZORA' approximation.

  Final zero-broadening corrected energy:
  | For metallic systems only, a broadening of the occupation numbers at the Fermi
  | level can be extrapolated back to zero broadening by an electron-gas inspired
  | formula. For all systems that are not real metals, this value can be
  | meaningless and should be avoided.

------------------------------------------------------------------------------
  Methods described in the following list of references were used in this FHI-aims run.
  If you publish the results, please make sure to cite these reference if they apply.
  FHI-aims is an academic code, and for our developers (often, Ph.D. students
  and postdocs), scientific credit in the community is essential.
  Thank you for helping us!

  For any use of FHI-aims, please cite:

    Volker Blum, Ralf Gehrke, Felix Hanke, Paula Havu, Ville Havu,
    Xinguo Ren, Karsten Reuter, and Matthias Scheffler
    'Ab initio molecular simulations with numeric atom-centered orbitals'
    Computer Physics Communications 180, 2175-2196 (2009)
    http://dx.doi.org/10.1016/j.cpc.2009.06.022


  The scalable eigensolver library ELPA was used in your run.
  ELPA is essential especially for large systems on hundreds or thousands of CPUs.
  For ELPA, please cite:

    Andreas Marek, Volker Blum, Rainer Johanni, Ville Havu, Bruno Lang,
    Thomas Auckenthaler, Alexander Heinecke, Hans-Joachim Bungartz, and Hermann Lederer,
    'The ELPA Library - Scalable Parallel Eigenvalue Solutions
    for Electronic Structure Theory and Computational Science'
    The Journal of Physics: Condensed Matter 26, 213201 (2014).
    http://dx.doi.org/10.1088/0953-8984/26/21/213201


  The ELSI infrastructure was used in your run to solve the Kohn-Sham electronic structure.
  Please check out http://elsi-interchange.org to learn more.
  If scalability is important for your project, please acknowledge ELSI by citing:

    V. W-z. Yu, F. Corsetti, A. Garcia, W. P. Huhn, M. Jacquelin, W. Jia,
    B. Lange, L. Lin, J. Lu, W. Mi, A. Seifitokaldani, A. Vazquez-Mayagoitia,
    C. Yang, H. Yang, and V. Blum
    'ELSI: A unified software interface for Kohn-Sham electronic structure solvers'
    Computer Physics Communications 222, 267-285 (2018).
    http://dx.doi.org/10.1016/j.cpc.2017.09.007


  For the real-space grid partitioning and parallelization used in this calculation, please cite:

    Ville Havu, Volker Blum, Paula Havu, and Matthias Scheffler,
    'Efficient O(N) integration for all-electron electronic structure calculation'
    'using numerically tabulated basis functions'
    Journal of Computational Physics 228, 8367-8379 (2009).
    http://dx.doi.org/10.1016/j.jcp.2009.08.008

  Of course, there are many other important community references, e.g., those cited in the
  above references. Our list is limited to references that describe implementations in the
  FHI-aims code. The reason is purely practical (length of this list) - please credit others as well.

------------------------------------------------------------
          Leaving FHI-aims.
          Date     :  20210620, Time     :  175117.371

          Computational steps:
          | Number of self-consistency cycles          :           14
          | Number of SCF (re)initializations          :            1

          Detailed time accounting                     :  max(cpu_time)    wall_clock(cpu1)
          | Total time                                 :       37.786 s          37.990 s
          | Preparation time                           :        0.187 s           0.173 s
          | Boundary condition initalization           :        0.001 s           0.003 s
          | Grid partitioning                          :        0.414 s           0.418 s
          | Preloading free-atom quantities on grid    :        0.013 s           0.016 s
          | Free-atom superposition energy             :        0.031 s           0.031 s
          | Total time for integrations                :       22.236 s          22.242 s
          | Total time for solution of K.-S. equations :        1.041 s           1.063 s
          | Total time for density update              :        7.294 s           7.263 s
          | Total time for mixing                      :        0.063 s           0.069 s
          | Total time for Hartree multipole update    :        0.094 s           0.102 s
          | Total time for Hartree multipole sum       :        3.360 s           3.364 s
          | Total time for total energy evaluation     :        0.008 s           0.029 s
          | Total time for scaled ZORA corrections     :        2.474 s           2.487 s

          Partial memory accounting:
          | Residual value for overall tracked memory usage across tasks :     0.000000 MB (should be 0.000000 MB)
          | Peak values for overall tracked memory usage (after allocating zora_vector2):
          |   Minimum:       19.734 MB (on task 18)
          |   Maximum:       22.970 MB (on task 54)
          |   Average:       21.452 MB
          | Largest tracked array allocation (hamiltonian_shell):
          |   Minimum:        5.353 MB (on task  1)
          |   Maximum:        5.353 MB (on task  1)
          |   Average:        5.353 MB
          Note:  These values currently only include a subset of arrays which are explicitly tracked.
          The "true" memory usage will be greater.

          Have a nice day.
------------------------------------------------------------
