  MPI-parallelism will be employed.
------------------------------------------------------------
          Invoking FHI-aims ...
          Version 180607
          Git rev. (modified): 6724847 Fix JSON memory corruption in scf_solver
          Compiled on 2018/06/27 at 16:00:31 on host coe.psc.edu.

          When using FHI-aims, please cite the following reference:

          Volker Blum, Ralf Gehrke, Felix Hanke, Paula Havu,
          Ville Havu, Xinguo Ren, Karsten Reuter, and Matthias Scheffler,
          'Ab Initio Molecular Simulations with Numeric Atom-Centered Orbitals',
          Computer Physics Communications 180, 2175-2196 (2009)

          For any questions about FHI-aims, please visit the aimsclub website
          with its forums and wiki. Contributions to both the forums and the
          wiki are warmly encouraged - they are for you, and everyone is welcome there.

------------------------------------------------------------



  Date     :  20210727, Time     :  230838.765
  Time zero on CPU 1             :   0.352160000000000E+00  s.
  Internal wall clock time zero  :           396659318.765  s.

  FHI-aims created a unique identifier for this run for later identification
  aims_uuid : E42BD9DA-A446-4E5D-A86C-DD7E1242C9F9

  Using       56 parallel tasks.
  Task        0 on host d018 reporting.
  Task        1 on host d018 reporting.
  Task        2 on host d018 reporting.
  Task        3 on host d018 reporting.
  Task        4 on host d018 reporting.
  Task        5 on host d018 reporting.
  Task        6 on host d018 reporting.
  Task        7 on host d018 reporting.
  Task        8 on host d018 reporting.
  Task        9 on host d018 reporting.
  Task       10 on host d018 reporting.
  Task       11 on host d018 reporting.
  Task       12 on host d018 reporting.
  Task       13 on host d018 reporting.
  Task       14 on host d018 reporting.
  Task       15 on host d018 reporting.
  Task       16 on host d018 reporting.
  Task       17 on host d018 reporting.
  Task       18 on host d018 reporting.
  Task       19 on host d018 reporting.
  Task       20 on host d018 reporting.
  Task       21 on host d018 reporting.
  Task       22 on host d018 reporting.
  Task       23 on host d018 reporting.
  Task       24 on host d018 reporting.
  Task       25 on host d018 reporting.
  Task       26 on host d018 reporting.
  Task       27 on host d018 reporting.
  Task       28 on host d018 reporting.
  Task       29 on host d018 reporting.
  Task       30 on host d018 reporting.
  Task       31 on host d018 reporting.
  Task       32 on host d018 reporting.
  Task       33 on host d018 reporting.
  Task       34 on host d018 reporting.
  Task       35 on host d018 reporting.
  Task       36 on host d018 reporting.
  Task       37 on host d018 reporting.
  Task       38 on host d018 reporting.
  Task       39 on host d018 reporting.
  Task       40 on host d018 reporting.
  Task       41 on host d018 reporting.
  Task       42 on host d018 reporting.
  Task       43 on host d018 reporting.
  Task       44 on host d018 reporting.
  Task       45 on host d018 reporting.
  Task       46 on host d018 reporting.
  Task       47 on host d018 reporting.
  Task       48 on host d018 reporting.
  Task       49 on host d018 reporting.
  Task       50 on host d018 reporting.
  Task       51 on host d018 reporting.
  Task       52 on host d018 reporting.
  Task       53 on host d018 reporting.
  Task       54 on host d018 reporting.
  Task       55 on host d018 reporting.

  Performing system and environment tests:
  *** Environment variable OMP_NUM_THREADS is not set
  *** For performance reasons you might want to set it to 1
  | Stacksize not measured: no C compiler
  | Checking for scalapack...
  | Testing pdtran()...
  | All pdtran() tests passed.

  Obtaining array dimensions for all initial allocations:
  
  -----------------------------------------------------------------------
  Parsing control.in (first pass over file, find array dimensions only).
  The contents of control.in will be repeated verbatim below
  unless switched off by setting 'verbatim_writeout .false.' .
  in the first line of control.in .
  -----------------------------------------------------------------------
  
  #===============================================================================
  # FHI-aims file: ./Runs/es/control.in
  # Created using the Atomic Simulation Environment (ASE)
  # Mon Jan 13 16:04:38 2020
  #===============================================================================
  xc                                 pbe
  relativistic                       zora scalar 1e-12
  occupation_type                    gaussian 0.0001
  load_balancing                     .true.
  KS_method                          scalapack_fast
  mixer                              pulay
  n_max_pulay                        5
  charge_mix_param                   0.4
  sc_accuracy_etot                   1e-6
  sc_accuracy_eev                    1e-4
  sc_accuracy_rho                    1e-6
  sc_iter_limit                      100
  prodbas_threshold                  1e-4
  basis_threshold                    1e-5
  override_illconditioning           .true.
  use_logsbt                         .true.
  spin                               none
  charge                             0
  #===============================================================================
  
  ################################################################################
  #
  #  FHI-aims code project
  # Volker Blum, Fritz Haber Institute Berlin, 2009
  #
  #  Suggested "tight" defaults for H atom (to be pasted into control.in file)
  #
  ################################################################################
    species        H
  #     global species definitions
      nucleus             1
      mass                1.00794
  #
      l_hartree           6
  #
      cut_pot             4.0  2.0  1.0
      basis_dep_cutoff    1e-4
  #
      radial_base         24 7.0
      radial_multiplier   2
      angular_grids       specified
        division   0.1930   50
        division   0.3175  110
        division   0.4293  194
        division   0.5066  302
        division   0.5626  434
  #      division   0.5922  590
  #      division   0.6227  974
  #      division   0.6868 1202
  #      outer_grid  770
        outer_grid  434
  ################################################################################
  #
  #  Definition of "minimal" basis
  #
  ################################################################################
  #     valence basis states
      valence      1  s   1.
  #     ion occupancy
      ion_occ      1  s   0.5
  ################################################################################
  #
  #  Suggested additional basis functions. For production calculations,
  #  uncomment them one after another (the most important basis functions are
  #  listed first).
  #
  #  Basis constructed for dimers: 0.5 A, 0.7 A, 1.0 A, 1.5 A, 2.5 A
  #
  ################################################################################
  #  "First tier" - improvements: -1014.90 meV to -62.69 meV
       hydro 2 s 2.1
       hydro 2 p 3.5
  #  "Second tier" - improvements: -12.89 meV to -1.83 meV
       hydro 1 s 0.85
       hydro 2 p 3.7
       hydro 2 s 1.2
       hydro 3 d 7
  #  "Third tier" - improvements: -0.25 meV to -0.12 meV
  #     hydro 4 f 11.2
  #     hydro 3 p 4.8
  #     hydro 4 d 9
  #     hydro 3 s 3.2
  ################################################################################
  #
  # For methods that use the localized form of the "resolution of identity" for
  # the two-electron Coulomb operator (RI_method LVL), particularly Hartree-Fock and
  # hybrid density functional calculations, the highest accuracy can be obtained by
  # uncommenting the line beginning with "for_aux"  below, thus adding an extra g radial
  # function to the construction of the product basis set for the expansion.
  # See Ref. New J. Phys. 17, 093020 (2015) for more information, particularly Figs. 1 and 6.
  #
  ################################################################################
  #
  # for_aux hydro 5 g 6.0
  ################################################################################
  #
  #  FHI-aims code project
  # Volker Blum, Fritz Haber Institute Berlin, 2009
  #
  #  Suggested "tight" defaults for C atom (to be pasted into control.in file)
  #
  ################################################################################
    species        C
  #     global species definitions
      nucleus             6
      mass                12.0107
  #
      l_hartree           6
  #
      cut_pot             4.0  2.0  1.0
      basis_dep_cutoff    1e-4
  #
      radial_base         34 7.0
      radial_multiplier   2
      angular_grids specified
        division   0.2187   50
        division   0.4416  110
        division   0.6335  194
        division   0.7727  302
        division   0.8772  434
  #      division   0.9334  590
  #      division   0.9924  770
  #      division   1.0230  974
  #      division   1.5020 1202
  #     outer_grid  974
        outer_grid  434
  ################################################################################
  #
  #  Definition of "minimal" basis
  #
  ################################################################################
  #     valence basis states
      valence      2  s   2.
      valence      2  p   2.
  #     ion occupancy
      ion_occ      2  s   1.
      ion_occ      2  p   1.
  ################################################################################
  #
  #  Suggested additional basis functions. For production calculations,
  #  uncomment them one after another (the most important basis functions are
  #  listed first).
  #
  #  Constructed for dimers: 1.0 A, 1.25 A, 1.5 A, 2.0 A, 3.0 A
  #
  ################################################################################
  #  "First tier" - improvements: -1214.57 meV to -155.61 meV
       hydro 2 p 1.7
       hydro 3 d 6
       hydro 2 s 4.9
  #  "Second tier" - improvements: -67.75 meV to -5.23 meV
       hydro 4 f 9.8
       hydro 3 p 5.2
       hydro 3 s 4.3
       hydro 5 g 14.4
       hydro 3 d 6.2
  #  "Third tier" - improvements: -2.43 meV to -0.60 meV
  #     hydro 2 p 5.6
  #     hydro 2 s 1.4
  #     hydro 3 d 4.9
  #     hydro 4 f 11.2
  #  "Fourth tier" - improvements: -0.39 meV to -0.18 meV
  #     hydro 2 p 2.1
  #     hydro 5 g 16.4
  #     hydro 4 d 13.2
  #     hydro 3 s 13.6
  #     hydro 4 f 17.6
  #  Further basis functions - improvements: -0.08 meV and below
  #     hydro 3 s 2
  #     hydro 3 p 6
  #     hydro 4 d 20
  ################################################################################
  #
  # For methods that use the localized form of the "resolution of identity" for
  # the two-electron Coulomb operator (RI_method LVL), particularly Hartree-Fock and
  # hybrid density functional calculations, the highest accuracy can be obtained by
  # uncommenting the line beginning with "for_aux"  below, thus adding an extra g radial
  # function to the construction of the product basis set for the expansion.
  # See Ref. New J. Phys. 17, 093020 (2015) for more information, particularly Figs. 1 and 6.
  #
  ################################################################################
  #
  # for_aux hydro 5 g 6.0
  
  -----------------------------------------------------------------------
  Completed first pass over input file control.in .
  -----------------------------------------------------------------------
  
  
  -----------------------------------------------------------------------
  Parsing geometry.in (first pass over file, find array dimensions only).
  The contents of geometry.in will be repeated verbatim below
  unless switched off by setting 'verbatim_writeout .false.' .
  in the first line of geometry.in .
  -----------------------------------------------------------------------
  
  #=======================================================
  # FHI-aims file: geometry.in
  # Created using the Atomic Simulation Environment (ASE)
  # Mon Jul 26 17:53:15 2021
  #=======================================================
  atom 30.8138480000000001 39.5634709999999998 60.3181569999999994 C
  atom 30.0071939999999984 40.3774489999999986 61.1076979999999992 C
  atom 30.8592329999999997 38.4951360000000022 60.5243960000000030 H
  atom 31.5807369999999992 40.1017719999999969 59.3041950000000000 C
  atom 29.2702799999999996 39.7894530000000017 62.2658470000000008 C
  atom 29.9394120000000008 41.7250090000000000 60.8079279999999969 C
  atom 31.5295950000000005 41.4455579999999983 59.0416349999999994 C
  atom 32.2200789999999984 39.4451839999999976 58.7161290000000022 H
  atom 28.0831179999999989 39.0143190000000004 61.9337510000000009 C
  atom 29.6654699999999991 39.9481290000000016 63.5746949999999984 C
  atom 29.3027699999999989 42.3724479999999986 61.4110609999999966 H
  atom 30.6939439999999983 42.2502580000000023 59.7853619999999992 C
  atom 32.1445330000000027 41.8734650000000030 58.2488079999999968 H
  atom 27.6186770000000017 38.9097409999999968 60.6249040000000008 C
  atom 27.3731210000000011 38.3491089999999986 62.9623640000000009 C
  atom 28.8836539999999999 39.3373309999999989 64.6428429999999992 C
  atom 30.8532440000000001 40.7444929999999985 63.9939999999999998 C
  atom 30.6475380000000008 43.3192680000000010 59.5732840000000010 H
  atom 26.4789870000000001 38.1737639999999985 60.3258310000000009 C
  atom 28.1530920000000009 39.4170289999999994 59.8251139999999992 H
  atom 26.1997840000000011 37.6032250000000019 62.6409659999999988 C
  atom 27.8108889999999995 38.4428359999999998 64.3105139999999977 C
  atom 29.1341040000000007 39.6282619999999994 65.9826209999999946 C
  atom 31.9267429999999983 41.0553960000000018 63.1705049999999986 C
  atom 30.8653569999999995 41.2665969999999973 65.3195920000000001 C
  atom 26.1386350000000007 38.1111900000000006 59.2919359999999998 H
  atom 25.7748629999999999 37.5412639999999982 61.3160719999999984 C
  atom 25.5058149999999983 36.9466639999999984 63.6939980000000006 C
  atom 27.1295220000000015 37.7379970000000000 65.3181969999999978 C
  atom 28.6015149999999991 38.7576710000000020 67.0070479999999975 C
  atom 29.9391670000000012 40.8091269999999966 66.2958789999999993 C
  atom 32.0257239999999967 40.5975889999999993 62.1943879999999965 H
  atom 32.9128839999999983 41.9698629999999966 63.5651599999999988 C
  atom 31.8228679999999997 42.2615809999999996 65.6842460000000017 C
  atom 24.8606209999999983 36.9958340000000021 61.0868529999999978 H
  atom 24.5954559999999987 36.3932739999999981 63.4563559999999995 H
  atom 25.9587550000000000 36.9946290000000033 64.9635430000000014 C
  atom 27.6221029999999992 37.7975980000000007 66.6649519999999995 C
  atom 29.1100010000000005 38.7350250000000003 68.3338020000000057 C
  atom 29.8264829999999996 41.5230880000000013 67.4842610000000036 C
  atom 32.8343350000000029 42.5929270000000031 64.7614480000000015 C
  atom 33.7283729999999977 42.1963020000000029 62.8794729999999973 H
  atom 31.7139759999999988 42.8978549999999998 66.9316979999999973 C
  atom 25.4002690000000015 36.4763760000000019 65.7397380000000027 H
  atom 27.1565610000000000 36.9144259999999989 67.6696110000000033 C
  atom 28.6393209999999989 37.8713529999999992 69.2682290000000052 C
  atom 29.9316899999999997 39.3995200000000025 68.5855990000000020 H
  atom 29.0357650000000014 41.2748350000000030 68.1895739999999932 H
  atom 30.7098499999999994 42.5723259999999968 67.7898449999999997 C
  atom 33.5622639999999990 43.3520480000000035 65.0413970000000035 H
  atom 32.4348689999999991 43.6796459999999982 67.1813439999999957 H
  atom 26.4182419999999993 36.1610620000000011 67.4081039999999945 H
  atom 27.6388649999999991 36.9609749999999977 68.9424120000000045 C
  atom 29.0648909999999994 37.8681049999999999 70.2706510000000009 H
  atom 30.5880469999999995 43.1097710000000021 68.7289379999999994 H
  atom 27.2598869999999991 36.2722630000000024 69.6986619999999988 H
  
  -----------------------------------------------------------------------
  Completed first pass over input file geometry.in .
  -----------------------------------------------------------------------
  

  Basic array size parameters:
  | Number of species                 :        2
  | Number of atoms                   :       56
  | Max. basis fn. angular momentum   :        4
  | Max. atomic/ionic basis occupied n:        2
  | Max. number of basis fn. types    :        2
  | Max. radial fns per species/type  :        8
  | Max. logarithmic grid size        :     1277
  | Max. radial integration grid size :       69
  | Max. angular integration grid size:      434
  | Max. angular grid division number :        8
  | Radial grid for Hartree potential :     1277
  | Number of spin channels           :        1

------------------------------------------------------------
          Reading file control.in.
------------------------------------------------------------
  XC: Using PBE gradient-corrected functionals.
  Scalar relativistic treatment of kinetic energy: ZORA.
  Threshold value for ZORA:   0.100000E-11
  Occupation type: Gaussian broadening, width =   0.100000E-03 eV.
  Since 'load_balancing .true.' is present in control.in, automatically turning on 'use_local_index .true.'.
  Using load balancing for integrations.
  Kohn-Sham electronic structure solved by the ELSI library.
  Using pulay charge density mixing.
  Pulay mixing - number of memorized iterations:    5
  Charge density mixing - mixing parameter:     0.4000
  Convergence accuracy of total energy:  0.1000E-05
  Convergence accuracy of sum of eigenvalues:  0.1000E-03
  Convergence accuracy of self-consistent charge density:  0.1000E-05
  Maximum number of s.-c. iterations  :   100
  * Ignoring prodbas_threshold
  Threshold for basis singularities:  0.1000E-04
  override_illconditioning: Explicitly overriding any built-in checks for an ill-conditioned overlap matrix.
  *** WARNING: If you use this flag, you should really know what you are doing.
  *** DO NOT keep this flag set by default in all your control.in files.
  Using 1D integrations for auxiliary 2-center integrals.
  Spin treatment: No spin polarisation.
  Charge =   0.000000E+00: Neutral system requested explicitly.
 
  Reading configuration options for species H                   .
  | Found nuclear charge :   1.0000
  | Found atomic mass :    1.00794000000000      amu
  | Found l_max for Hartree potential  :   6
  | Found cutoff potl. onset [A], width [A], scale factor :    4.00000    2.00000    1.00000
  | Threshold for basis-dependent cutoff potential is   0.100000E-03
  | Found data for basic radial integration grid :    24 points, outermost radius =    7.000 A
  | Found multiplier for basic radial grid :   2
  | Found angular grid specification: user-specified.
  | Specified grid contains     6 separate shells.
  | Check grid settings after all constraints further below.
  | Found free-atom valence shell :  1 s   1.000
  | No ionic wave fns used. Skipping ion_occ.
  | Found hydrogenic basis function :  2 s   2.100
  | Found hydrogenic basis function :  2 p   3.500
  | Found hydrogenic basis function :  1 s   0.850
  | Found hydrogenic basis function :  2 p   3.700
  | Found hydrogenic basis function :  2 s   1.200
  | Found hydrogenic basis function :  3 d   7.000
  Species H                   : Missing cutoff potential type.
  Defaulting to exp(1/x)/(1-x)^2 type cutoff potential.
  Species H : No 'logarithmic' tag. Using default grid for free atom:
  | Default logarithmic grid data [bohr] : 0.1000E-03 0.1000E+03 0.1012E+01
  Species H : On-site basis accuracy parameter (for Gram-Schmidt orthonormalisation) not specified.
  Using default value basis_acc =  0.1000000E-03.
  Species H                   : Using default innermost maximum threshold i_radial=  2 for radial functions.
  Species H                   : Default cutoff onset for free atom density etc. : 0.40000000E+01 AA.
  Species H                   : Basic radial grid will be enhanced according to radial_multiplier =   2, to contain    49 grid points.
 
  Reading configuration options for species C                   .
  | Found nuclear charge :   6.0000
  | Found atomic mass :    12.0107000000000      amu
  | Found l_max for Hartree potential  :   6
  | Found cutoff potl. onset [A], width [A], scale factor :    4.00000    2.00000    1.00000
  | Threshold for basis-dependent cutoff potential is   0.100000E-03
  | Found data for basic radial integration grid :    34 points, outermost radius =    7.000 A
  | Found multiplier for basic radial grid :   2
  | Found angular grid specification: user-specified.
  | Specified grid contains     6 separate shells.
  | Check grid settings after all constraints further below.
  | Found free-atom valence shell :  2 s   2.000
  | Found free-atom valence shell :  2 p   2.000
  | No ionic wave fns used. Skipping ion_occ.
  | No ionic wave fns used. Skipping ion_occ.
  | Found hydrogenic basis function :  2 p   1.700
  | Found hydrogenic basis function :  3 d   6.000
  | Found hydrogenic basis function :  2 s   4.900
  | Found hydrogenic basis function :  4 f   9.800
  | Found hydrogenic basis function :  3 p   5.200
  | Found hydrogenic basis function :  3 s   4.300
  | Found hydrogenic basis function :  5 g  14.400
  | Found hydrogenic basis function :  3 d   6.200
  Species C                   : Missing cutoff potential type.
  Defaulting to exp(1/x)/(1-x)^2 type cutoff potential.
  Species C : No 'logarithmic' tag. Using default grid for free atom:
  | Default logarithmic grid data [bohr] : 0.1000E-03 0.1000E+03 0.1012E+01
  Species C : On-site basis accuracy parameter (for Gram-Schmidt orthonormalisation) not specified.
  Using default value basis_acc =  0.1000000E-03.
  Species C                   : Using default innermost maximum threshold i_radial=  2 for radial functions.
  Species C                   : Default cutoff onset for free atom density etc. : 0.40000000E+01 AA.
  Species C                   : Basic radial grid will be enhanced according to radial_multiplier =   2, to contain    69 grid points.
 
  Finished reading input file 'control.in'. Consistency checks are next.
 
  MPI_IN_PLACE appears to work with this MPI implementation.
  | Keeping use_mpi_in_place .true. (see manual).
  Target number of points in a grid batch is not set. Defaulting to  100
  Method for grid partitioning is not set. Defaulting to parallel hash+maxmin partitioning.
  Batch size limit is not set. Defaulting to    200
  By default, will store active basis functions for each batch.
  If in need of memory, prune_basis_once .false. can be used to disable this option.
  communication_type for Hartree potential was not specified.
  Defaulting to calc_hartree .
  Pulay mixer: Number of initial linear mixing iterations not set.
  Defaulting to    0 iterations.
  Work space size for distributed Hartree potential not set.
  Defaulting to   0.200000E+03 MB.
  Algorithm-dependent basis array size parameters:
  | n_max_pulay                         :        5
  Presetting      1001 iterations before the initial mixing cycle
  is restarted anyway using the sc_init_iter criterion / keyword.
  Presetting a factor      1.000 between actual scf density residual
  and density convergence criterion sc_accuracy_rho below which sc_init_iter
  takes no effect.
  Calculation of forces was not defined in control.in. No forces will be calculated.
  Geometry relaxation not requested: no relaxation will be performed.
  No accuracy limit for integral partition fn. given. Defaulting to  0.1000E-14.
  No threshold value for u(r) in integrations given. Defaulting to  0.1000E-05.
  No accuracy for occupation numbers given. Defaulting to  0.1000E-12.
  No threshold value for occupation numbers given. Defaulting to  0.0000E+00.
  No accuracy for fermi level given. Defaulting to  0.1000E-19.
  Maximum # of iterations to find E_F not set. Defaulting to  200.
  Will not use alltoall communication since running on < 1024 CPUs.
  partition_type (choice of integration weights) for integrals was not specified.
  | Using a version of the partition function of Stratmann and coworkers ('stratmann_sparse').
  | At each grid point, the set of atoms used to build the partition table is smoothly restricted to
  | only those atoms whose free-atom density would be non-zero at that grid point.
  Partitioning for Hartree potential was not defined. Using partition_type for integrals.
  | Adjusted default value of keyword multip_moments_threshold to:       0.10000000E-11
  | This value may affect high angular momentum components of the Hartree potential in periodic systems.
  No q(lm)/r^(l+1) cutoff set for long-range Hartree potential.
  | Using default value of  0.100000E-09 .
  | Verify using the multipole_threshold keyword.
  Defaulting to new monopole extrapolation.
  Density update method: automatic selection selected.
 * Warning: use_local_index and/or load_balancing needs packed_matrix_format = index
 * Changing the default setting to packed_matrix_format = index
------------------------------------------------------------


------------------------------------------------------------
          Reading geometry description geometry.in.
------------------------------------------------------------
  Input structure read successfully.
  The structure contains       56 atoms,  and a total of        236.000 electrons.

  Input geometry:
  | No unit cell requested.
  | Atomic structure:
  |       Atom                x [A]            y [A]            z [A]
  |    1: Species C            30.81384800       39.56347100       60.31815700
  |    2: Species C            30.00719400       40.37744900       61.10769800
  |    3: Species H            30.85923300       38.49513600       60.52439600
  |    4: Species C            31.58073700       40.10177200       59.30419500
  |    5: Species C            29.27028000       39.78945300       62.26584700
  |    6: Species C            29.93941200       41.72500900       60.80792800
  |    7: Species C            31.52959500       41.44555800       59.04163500
  |    8: Species H            32.22007900       39.44518400       58.71612900
  |    9: Species C            28.08311800       39.01431900       61.93375100
  |   10: Species C            29.66547000       39.94812900       63.57469500
  |   11: Species H            29.30277000       42.37244800       61.41106100
  |   12: Species C            30.69394400       42.25025800       59.78536200
  |   13: Species H            32.14453300       41.87346500       58.24880800
  |   14: Species C            27.61867700       38.90974100       60.62490400
  |   15: Species C            27.37312100       38.34910900       62.96236400
  |   16: Species C            28.88365400       39.33733100       64.64284300
  |   17: Species C            30.85324400       40.74449300       63.99400000
  |   18: Species H            30.64753800       43.31926800       59.57328400
  |   19: Species C            26.47898700       38.17376400       60.32583100
  |   20: Species H            28.15309200       39.41702900       59.82511400
  |   21: Species C            26.19978400       37.60322500       62.64096600
  |   22: Species C            27.81088900       38.44283600       64.31051400
  |   23: Species C            29.13410400       39.62826200       65.98262100
  |   24: Species C            31.92674300       41.05539600       63.17050500
  |   25: Species C            30.86535700       41.26659700       65.31959200
  |   26: Species H            26.13863500       38.11119000       59.29193600
  |   27: Species C            25.77486300       37.54126400       61.31607200
  |   28: Species C            25.50581500       36.94666400       63.69399800
  |   29: Species C            27.12952200       37.73799700       65.31819700
  |   30: Species C            28.60151500       38.75767100       67.00704800
  |   31: Species C            29.93916700       40.80912700       66.29587900
  |   32: Species H            32.02572400       40.59758900       62.19438800
  |   33: Species C            32.91288400       41.96986300       63.56516000
  |   34: Species C            31.82286800       42.26158100       65.68424600
  |   35: Species H            24.86062100       36.99583400       61.08685300
  |   36: Species H            24.59545600       36.39327400       63.45635600
  |   37: Species C            25.95875500       36.99462900       64.96354300
  |   38: Species C            27.62210300       37.79759800       66.66495200
  |   39: Species C            29.11000100       38.73502500       68.33380200
  |   40: Species C            29.82648300       41.52308800       67.48426100
  |   41: Species C            32.83433500       42.59292700       64.76144800
  |   42: Species H            33.72837300       42.19630200       62.87947300
  |   43: Species C            31.71397600       42.89785500       66.93169800
  |   44: Species H            25.40026900       36.47637600       65.73973800
  |   45: Species C            27.15656100       36.91442600       67.66961100
  |   46: Species C            28.63932100       37.87135300       69.26822900
  |   47: Species H            29.93169000       39.39952000       68.58559900
  |   48: Species H            29.03576500       41.27483500       68.18957400
  |   49: Species C            30.70985000       42.57232600       67.78984500
  |   50: Species H            33.56226400       43.35204800       65.04139700
  |   51: Species H            32.43486900       43.67964600       67.18134400
  |   52: Species H            26.41824200       36.16106200       67.40810400
  |   53: Species C            27.63886500       36.96097500       68.94241200
  |   54: Species H            29.06489100       37.86810500       70.27065100
  |   55: Species H            30.58804700       43.10977100       68.72893800
  |   56: Species H            27.25988700       36.27226300       69.69866200
  |

  | The smallest distance between any two atoms is         1.08267672 AA.
  |
  | The first atom of this pair is atom number                     24 .
  | The second atom of this pair is atom number                    32 .

  Number of empty states per atom not set in control.in - providing a guess from actual geometry.
  | Total number of empty states used during s.c.f. cycle:      138
  If you use a very high smearing, use empty_states (per atom!) in control.in to increase this value.

  Structure-dependent array size parameters: 
  | Maximum number of distinct radial functions  :       18
  | Maximum number of basis functions            :     1704
  | Number of Kohn-Sham states (occupied + empty):      256
------------------------------------------------------------

------------------------------------------------------------
          Preparing all fixed parts of the calculation.
------------------------------------------------------------
  Determining machine precision:
    2.225073858507201E-308
  Setting up grids for atomic and cluster calculations.

  Creating wave function, potential, and density for free atoms.

  Species: H

  List of occupied orbitals and eigenvalues:
    n    l              occ      energy [Ha]    energy [eV]
    1    0           1.0000        -0.238386        -6.4868


  Species: C

  List of occupied orbitals and eigenvalues:
    n    l              occ      energy [Ha]    energy [eV]
    1    0           2.0000       -10.049212      -273.4530
    2    0           2.0000        -0.504761       -13.7352
    2    1           2.0000        -0.193631        -5.2690

  Creating fixed part of basis set: Ionic, confined, hydrogenic.
 
  H                    hydrogenic:
 
  List of hydrogenic basis orbitals: 
    n    l      effective z      eigenvalue [eV]  inner max. [A]     outer max. [A]     outer radius [A]   
    2    0         2.100000       -14.9965           0.193243           1.317208           5.373006
    2    1         3.500000       -41.6672           0.602369           0.602369           4.056063
    1    0         0.850000        -9.8292           0.624871           0.624871           5.373006
    2    1         3.700000       -46.5653           0.573622           0.573622           3.910002
    2    0         1.200000        -4.5995           0.334980           2.228188           5.505995
    3    2         7.000000       -74.0753           0.680699           0.680699           3.769201
 
 
  C                    hydrogenic:
 
  List of hydrogenic basis orbitals: 
    n    l      effective z      eigenvalue [eV]  inner max. [A]     outer max. [A]     outer radius [A]   
    2    1         1.700000        -9.8152           1.245706           1.245706           5.401630
    3    2         6.000000       -54.4226           0.792453           0.792453           4.178599
    2    0         4.900000       -81.6681           0.082559           0.562749           3.353238
    4    3         9.800000       -81.6681           0.863254           0.863254           4.028125
    3    1         5.200000       -40.8774           0.305389           1.215618           4.898362
    3    0         4.300000       -27.9508           0.091041           1.610311           5.401630
    5    4        14.400000      -112.8510           0.917666           0.917666           3.883070
    3    2         6.200000       -58.1113           0.763917           0.763917           4.077671
 

  Adding cutoff potential to free-atom effective potential.
  Creating atomic-like basis functions for current effective potential.

  Species H                   :

  List of atomic basis orbitals and eigenvalues:
    n    l      energy [Ha]    energy [eV]    outer radius [A]
    1    0        -0.238386        -6.4868       5.373006


  Species C                   :

  List of atomic basis orbitals and eigenvalues:
    n    l      energy [Ha]    energy [eV]    outer radius [A]
    1    0       -10.049212      -273.4530       1.934409
    2    0        -0.504761       -13.7352       5.271162
    2    1        -0.193631        -5.2690       5.401630

  Assembling full basis from fixed parts.
  | Species H :   atomic orbital   1 s accepted.
  | Species H :    hydro orbital   2 s accepted.
  | Species H :    hydro orbital   1 s accepted.
  | Species H :    hydro orbital   2 s accepted.
  | Species H :    hydro orbital   2 p accepted.
  | Species H :    hydro orbital   2 p accepted.
  | Species H :    hydro orbital   3 d accepted.
  | Species C :   atomic orbital   1 s accepted.
  | Species C :    hydro orbital   2 s accepted.
  | Species C :   atomic orbital   2 s accepted.
  | Species C :    hydro orbital   3 s accepted.
  | Species C :    hydro orbital   3 p accepted.
  | Species C :   atomic orbital   2 p accepted.
  | Species C :    hydro orbital   2 p accepted.
  | Species C :    hydro orbital   3 d accepted.
  | Species C :    hydro orbital   3 d accepted.
  | Species C :    hydro orbital   4 f accepted.
  | Species C :    hydro orbital   5 g accepted.
 
  Basis size parameters after reduction:
  | Total number of radial functions:       18
  | Total number of basis functions :     1704
 
  Per-task memory consumption for arrays in subroutine allocate_ext:
  |           4.453016MB.
  Testing on-site integration grid accuracy.
  |  Species  Function  <phi|h_atom|phi> (log., in eV)  <phi|h_atom|phi> (rad., in eV)
           1        1                 -6.4870767962                 -6.4871688290
           1        2                 13.5032046589                 13.5028982997
           1        3                 32.8195184817                 32.8119941656
           1        4                 33.8513856511                 33.7670005767 ***
           1        5                 28.8544614965                 28.8544615203
           1        6                 59.6326952547                 59.6327656460
           1        7                 60.2719308513                 60.2719305949
           2        8               -273.4529726040               -273.4529710464
           2        9                -10.7721037319                -10.7721022101
           2       10                 17.6044132601                 17.6044162063
           2       11                 53.7706460658                 53.7706913770
           2       12                 15.0973290362                 15.0973256030
           2       13                  3.8545134692                  3.8545724687
           2       14                 12.1156992592                 12.1182024431
           2       15                 29.4352039302                 29.4352041816
           2       16                 54.8741144708                 54.8740268729
           2       17                 59.3556032049                 59.3556031382
           2       18                 93.4551837154                 93.4551838009
 * Note: Onsite integrals marked "***" above are less accurate than
 * onsite_accuracy_threshold =    0.03000 eV. Usually, this is harmless.
 * When in doubt, tighten the "radial" and/or "radial_multiplier" flags to check.

  Preparing densities etc. for the partition functions (integrals / Hartree potential).

  Preparations completed.
  max(cpu_time)          :      0.203 s.
  Wall clock time (cpu1) :      0.205 s.
------------------------------------------------------------

------------------------------------------------------------
          Begin self-consistency loop: Initialization.

          Date     :  20210727, Time     :  230839.208
------------------------------------------------------------

  Initializing index lists of integration centers etc. from given atomic structure:
  | Number of centers in hartree potential         :        56
  | Number of centers in hartree multipole         :        56
  | Number of centers in electron density summation:        56
  | Number of centers in basis integrals           :        56
  | Number of centers in integrals                 :        56
  | Number of centers in hamiltonian               :        56
  * Using 56 tasks for Scalapack Eigenvalue solver.
  Detailed listing of tasks and assigned k-points:
  (for non-periodic systems, the "k-point" denotes an internal label only)
   Task     0 k-point     1 on d018
   Task     1 k-point     1 on d018
   Task     2 k-point     1 on d018
   Task     3 k-point     1 on d018
   Task     4 k-point     1 on d018
   Task     5 k-point     1 on d018
   Task     6 k-point     1 on d018
   Task     7 k-point     1 on d018
   Task     8 k-point     1 on d018
   Task     9 k-point     1 on d018
   Task    10 k-point     1 on d018
   Task    11 k-point     1 on d018
   Task    12 k-point     1 on d018
   Task    13 k-point     1 on d018
   Task    14 k-point     1 on d018
   Task    15 k-point     1 on d018
   Task    16 k-point     1 on d018
   Task    17 k-point     1 on d018
   Task    18 k-point     1 on d018
   Task    19 k-point     1 on d018
   Task    20 k-point     1 on d018
   Task    21 k-point     1 on d018
   Task    22 k-point     1 on d018
   Task    23 k-point     1 on d018
   Task    24 k-point     1 on d018
   Task    25 k-point     1 on d018
   Task    26 k-point     1 on d018
   Task    27 k-point     1 on d018
   Task    28 k-point     1 on d018
   Task    29 k-point     1 on d018
   Task    30 k-point     1 on d018
   Task    31 k-point     1 on d018
   Task    32 k-point     1 on d018
   Task    33 k-point     1 on d018
   Task    34 k-point     1 on d018
   Task    35 k-point     1 on d018
   Task    36 k-point     1 on d018
   Task    37 k-point     1 on d018
   Task    38 k-point     1 on d018
   Task    39 k-point     1 on d018
   Task    40 k-point     1 on d018
   Task    41 k-point     1 on d018
   Task    42 k-point     1 on d018
   Task    43 k-point     1 on d018
   Task    44 k-point     1 on d018
   Task    45 k-point     1 on d018
   Task    46 k-point     1 on d018
   Task    47 k-point     1 on d018
   Task    48 k-point     1 on d018
   Task    49 k-point     1 on d018
   Task    50 k-point     1 on d018
   Task    51 k-point     1 on d018
   Task    52 k-point     1 on d018
   Task    53 k-point     1 on d018
   Task    54 k-point     1 on d018
   Task    55 k-point     1 on d018
  Tasks:    56 split into      8 X      7 BLACS grid
  Calculating block size based on n_basis =         1704 max_nprow =            8 max_npcol =            7
  ScaLAPACK block size set to:           16
  Allocating        0.459 MB for ovlp
  Allocating        0.459 MB for ham
  Allocating        0.459 MB for eigenvec
  Required Scalapack workspace - INTEGER:            1 REAL:             1
  Partitioning the integration grid into batches with parallel hashing+maxmin method.
  | Number of batches:     8725
  | Maximal batch size:     200
  | Minimal batch size:       1
  | Average batch size:     107.714
  | Standard deviation of batch sizes:      33.632

  Integration load balanced across     56 MPI tasks.
  Work distribution over tasks is as follows:
  Task      0 has      16811 integration points.
  Task      1 has      16873 integration points.
  Task      2 has      16737 integration points.
  Task      3 has      16906 integration points.
  Task      4 has      16716 integration points.
  Task      5 has      16815 integration points.
  Task      6 has      16670 integration points.
  Task      7 has      16864 integration points.
  Task      8 has      16859 integration points.
  Task      9 has      16674 integration points.
  Task     10 has      16868 integration points.
  Task     11 has      16735 integration points.
  Task     12 has      16793 integration points.
  Task     13 has      16720 integration points.
  Task     14 has      16894 integration points.
  Task     15 has      16796 integration points.
  Task     16 has      16738 integration points.
  Task     17 has      16811 integration points.
  Task     18 has      16795 integration points.
  Task     19 has      16797 integration points.
  Task     20 has      16664 integration points.
  Task     21 has      16807 integration points.
  Task     22 has      16814 integration points.
  Task     23 has      16791 integration points.
  Task     24 has      16826 integration points.
  Task     25 has      16727 integration points.
  Task     26 has      16851 integration points.
  Task     27 has      16645 integration points.
  Task     28 has      16888 integration points.
  Task     29 has      16862 integration points.
  Task     30 has      16656 integration points.
  Task     31 has      16966 integration points.
  Task     32 has      16609 integration points.
  Task     33 has      16786 integration points.
  Task     34 has      16705 integration points.
  Task     35 has      16783 integration points.
  Task     36 has      16816 integration points.
  Task     37 has      16749 integration points.
  Task     38 has      16835 integration points.
  Task     39 has      16724 integration points.
  Task     40 has      16888 integration points.
  Task     41 has      16642 integration points.
  Task     42 has      16825 integration points.
  Task     43 has      16854 integration points.
  Task     44 has      16731 integration points.
  Task     45 has      16906 integration points.
  Task     46 has      16740 integration points.
  Task     47 has      16766 integration points.
  Task     48 has      16655 integration points.
  Task     49 has      16872 integration points.
  Task     50 has      16868 integration points.
  Task     51 has      16598 integration points.
  Task     52 has      16795 integration points.
  Task     53 has      16795 integration points.
  Task     54 has      16853 integration points.
  Task     55 has      16644 integration points.
  Initializing partition tables, free-atom densities, potentials, etc. across the integration grid (initialize_grid_storage).
  | initialize_grid_storage: Actual outermost partition radius vs. multipole_radius_free
  | (-- VB: in principle, multipole_radius_free should be larger, hence this output)
  | Species        1: Confinement radius =              6.000000000000000 AA, multipole_radius_free =              6.071692442739658 AA.
  | Species        1: outer_partition_radius set to              6.071692442739658 AA .
  | Species        2: Confinement radius =              6.000000000000000 AA, multipole_radius_free =              6.029870734432609 AA.
  | Species        2: outer_partition_radius set to              6.029870734432609 AA .
  | The sparse table of interatomic distances needs     37.1880 kbyte instead of    25.0880 kbyte of memory.
  | Using the partition_type stratmann_smoother will reduce your memory usage.
  | Net number of integration points:   939808
  | of which are non-zero points    :   745290
  Renormalizing the initial density to the exact electron count on the 3D integration grid.
  | Initial density: Formal number of electrons (from input files) :     236.0000000000
  | Integrated number of electrons on 3D grid     :     235.9999648518
  | Charge integration error                      :      -0.0000351482
  | Normalization factor for density and gradient :       1.0000001489
  Obtaining max. number of non-zero basis functions in each batch (get_n_compute_maxes).
  | Maximal number of non-zero basis functions:     1107
  Selecting the method for density update.
  Loop over occupied states selected for charge density update.
  Hamiltonian matrix size:
  | Size of matrix non-packed:               1452660
  | Size of matrix packed:         1296680
  Allocating        3.490 MB for KS_eigenvector
  use_local_index: Max. local matrix size =      1030525
  Task:     0 matrix size:     152628
  Task:     1 matrix size:     330364
  Task:     2 matrix size:     493383
  Task:     3 matrix size:     239063
  Task:     4 matrix size:     348812
  Task:     5 matrix size:     684011
  Task:     6 matrix size:     802508
  Task:     7 matrix size:     463480
  Task:     8 matrix size:     466293
  Task:     9 matrix size:     443980
  Task:    10 matrix size:     730405
  Task:    11 matrix size:     959736
  Task:    12 matrix size:    1030525
  Task:    13 matrix size:     956326
  Task:    14 matrix size:     334737
  Task:    15 matrix size:     337923
  Task:    16 matrix size:     241165
  Task:    17 matrix size:     943682
  Task:    18 matrix size:     747011
  Task:    19 matrix size:     879091
  Task:    20 matrix size:     633122
  Task:    21 matrix size:     254501
  Task:    22 matrix size:     243253
  Task:    23 matrix size:     193753
  Task:    24 matrix size:     747690
  Task:    25 matrix size:     648402
  Task:    26 matrix size:     460411
  Task:    27 matrix size:     394115
  Task:    28 matrix size:     392905
  Task:    29 matrix size:     457232
  Task:    30 matrix size:     661452
  Task:    31 matrix size:     262571
  Task:    32 matrix size:     144879
  Task:    33 matrix size:     495747
  Task:    34 matrix size:     264498
  Task:    35 matrix size:     834087
  Task:    36 matrix size:     950425
  Task:    37 matrix size:     990187
  Task:    38 matrix size:     258114
  Task:    39 matrix size:     389740
  Task:    40 matrix size:     416754
  Task:    41 matrix size:     399363
  Task:    42 matrix size:    1027834
  Task:    43 matrix size:    1008654
  Task:    44 matrix size:     822178
  Task:    45 matrix size:     568101
  Task:    46 matrix size:     371999
  Task:    47 matrix size:     480940
  Task:    48 matrix size:     314519
  Task:    49 matrix size:     691951
  Task:    50 matrix size:     475930
  Task:    51 matrix size:     345049
  Task:    52 matrix size:     499232
  Task:    53 matrix size:     353662
  Task:    54 matrix size:     216153
  Task:    55 matrix size:     150417
  Integrating Hamiltonian matrix: batch-based integration.
  Time summed over all CPUs for integration: real work      194.246 s, elapsed      401.846 s
  Time get_set_sparse_local_matrix_scalapack:     0.021546 s
  Start compute_balanced_batch_distribution
  Done load balancing, time needed:      0.009 s
  Integrating overlap matrix with loadbalancing
  Time summed over all CPUs for integration: real work       56.500 s, elapsed       65.073 s
  Time get_set_full_local_matrix_scalapack:     0.023133 s

  Updating Kohn-Sham eigenvalues and eigenvectors using ELSI and the ELPA eigensolver.
  Overlap matrix is not singular
  | Lowest and highest eigenvalues :  0.12E+02,  0.86E-04
  Finished singularity check of overlap matrix
  | Time :     0.114 s
  Finished Cholesky decomposition
  | Time :     0.024 s
  Finished transformation to standard eigenproblem
  | Time :     0.019 s
  Starting ELPA eigensolver
  Finished solving standard eigenproblem
  | Time :     0.119 s
  Finished back-transformation of eigenvectors
  | Time :     0.006 s

  Obtaining occupation numbers and chemical potential using ELSI.
  | Chemical potential (Fermi level):    -7.92847943 eV
  Writing Kohn-Sham eigenvalues.

  State    Occupation    Eigenvalue [Ha]    Eigenvalue [eV]
      1       2.00000         -10.176304         -276.91131
      2       2.00000         -10.176194         -276.90832
      3       2.00000         -10.175731         -276.89573
      4       2.00000         -10.175700         -276.89487
      5       2.00000         -10.175277         -276.88337
      6       2.00000         -10.175104         -276.87868
      7       2.00000         -10.174815         -276.87079
      8       2.00000         -10.174763         -276.86940
      9       2.00000         -10.174274         -276.85610
     10       2.00000         -10.173743         -276.84163
     11       2.00000         -10.173641         -276.83886
     12       2.00000         -10.173114         -276.82451
     13       2.00000         -10.173113         -276.82449
     14       2.00000         -10.173085         -276.82372
     15       2.00000         -10.172887         -276.81833
     16       2.00000         -10.172390         -276.80482
     17       2.00000         -10.172230         -276.80045
     18       2.00000         -10.171232         -276.77331
     19       2.00000         -10.170722         -276.75942
     20       2.00000         -10.169295         -276.72060
     21       2.00000         -10.168704         -276.70450
     22       2.00000         -10.168682         -276.70391
     23       2.00000         -10.168001         -276.68539
     24       2.00000         -10.166145         -276.63489
     25       2.00000         -10.165869         -276.62738
     26       2.00000         -10.165620         -276.62060
     27       2.00000         -10.165314         -276.61226
     28       2.00000         -10.164676         -276.59491
     29       2.00000         -10.164303         -276.58476
     30       2.00000         -10.164166         -276.58102
     31       2.00000         -10.163274         -276.55677
     32       2.00000         -10.162887         -276.54623
     33       2.00000         -10.161122         -276.49821
     34       2.00000         -10.160588         -276.48367
     35       2.00000         -10.158864         -276.43677
     36       2.00000         -10.158330         -276.42221
     37       2.00000          -1.026115          -27.92202
     38       2.00000          -1.011918          -27.53569
     39       2.00000          -1.008381          -27.43943
     40       2.00000          -1.000704          -27.23054
     41       2.00000          -0.972912          -26.47428
     42       2.00000          -0.967412          -26.32462
     43       2.00000          -0.965125          -26.26238
     44       2.00000          -0.934518          -25.42953
     45       2.00000          -0.922981          -25.11558
     46       2.00000          -0.907559          -24.69595
     47       2.00000          -0.899418          -24.47441
     48       2.00000          -0.891808          -24.26732
     49       2.00000          -0.885057          -24.08363
     50       2.00000          -0.880105          -23.94888
     51       2.00000          -0.875740          -23.83009
     52       2.00000          -0.866796          -23.58672
     53       2.00000          -0.864963          -23.53683
     54       2.00000          -0.837751          -22.79635
     55       2.00000          -0.792886          -21.57552
     56       2.00000          -0.784364          -21.34363
     57       2.00000          -0.777254          -21.15015
     58       2.00000          -0.770313          -20.96129
     59       2.00000          -0.760360          -20.69046
     60       2.00000          -0.758456          -20.63865
     61       2.00000          -0.752652          -20.48071
     62       2.00000          -0.746993          -20.32671
     63       2.00000          -0.735326          -20.00924
     64       2.00000          -0.716650          -19.50105
     65       2.00000          -0.707205          -19.24404
     66       2.00000          -0.681985          -18.55775
     67       2.00000          -0.678398          -18.46014
     68       2.00000          -0.667438          -18.16191
     69       2.00000          -0.658838          -17.92789
     70       2.00000          -0.652763          -17.76258
     71       2.00000          -0.650836          -17.71016
     72       2.00000          -0.642838          -17.49252
     73       2.00000          -0.637721          -17.35326
     74       2.00000          -0.636210          -17.31216
     75       2.00000          -0.629545          -17.13079
     76       2.00000          -0.623341          -16.96198
     77       2.00000          -0.608469          -16.55727
     78       2.00000          -0.602279          -16.38885
     79       2.00000          -0.595846          -16.21379
     80       2.00000          -0.590044          -16.05592
     81       2.00000          -0.589335          -16.03663
     82       2.00000          -0.585616          -15.93543
     83       2.00000          -0.576336          -15.68291
     84       2.00000          -0.574599          -15.63562
     85       2.00000          -0.568150          -15.46016
     86       2.00000          -0.567664          -15.44693
     87       2.00000          -0.564371          -15.35731
     88       2.00000          -0.555937          -15.12783
     89       2.00000          -0.553710          -15.06721
     90       2.00000          -0.546184          -14.86243
     91       2.00000          -0.541195          -14.72668
     92       2.00000          -0.531961          -14.47540
     93       2.00000          -0.530373          -14.43220
     94       2.00000          -0.525683          -14.30456
     95       2.00000          -0.518825          -14.11794
     96       2.00000          -0.513082          -13.96168
     97       2.00000          -0.511951          -13.93089
     98       2.00000          -0.507704          -13.81534
     99       2.00000          -0.505889          -13.76594
    100       2.00000          -0.500030          -13.60651
    101       2.00000          -0.497828          -13.54660
    102       2.00000          -0.495463          -13.48224
    103       2.00000          -0.491909          -13.38553
    104       2.00000          -0.482591          -13.13197
    105       2.00000          -0.475353          -12.93501
    106       2.00000          -0.474914          -12.92306
    107       2.00000          -0.468328          -12.74387
    108       2.00000          -0.442032          -12.02829
    109       2.00000          -0.429801          -11.69547
    110       2.00000          -0.419512          -11.41550
    111       2.00000          -0.410675          -11.17504
    112       2.00000          -0.406855          -11.07108
    113       2.00000          -0.399539          -10.87201
    114       2.00000          -0.396550          -10.79066
    115       2.00000          -0.394207          -10.72691
    116       2.00000          -0.379362          -10.32296
    117       2.00000          -0.377522          -10.27289
    118       2.00000          -0.337099           -9.17294
    119       0.00000          -0.275857           -7.50645
    120       0.00000          -0.235389           -6.40526
    121       0.00000          -0.233430           -6.35196
    122       0.00000          -0.219840           -5.98215
    123       0.00000          -0.218705           -5.95128
    124       0.00000          -0.213027           -5.79676
    125       0.00000          -0.208478           -5.67296
    126       0.00000          -0.207902           -5.65729
    127       0.00000          -0.188932           -5.14110
    128       0.00000          -0.174014           -4.73516
    129       0.00000          -0.158780           -4.32062
    130       0.00000          -0.117040           -3.18483
    131       0.00000          -0.112482           -3.06079
    132       0.00000          -0.099644           -2.71144
    133       0.00000          -0.077963           -2.12149
    134       0.00000          -0.072338           -1.96841
    135       0.00000          -0.071262           -1.93915
    136       0.00000          -0.066025           -1.79663
    137       0.00000          -0.062819           -1.70938
    138       0.00000          -0.055291           -1.50454
    139       0.00000          -0.051271           -1.39515
    140       0.00000          -0.048948           -1.33196
    141       0.00000          -0.042653           -1.16065
    142       0.00000          -0.038992           -1.06104
    143       0.00000          -0.034615           -0.94193
    144       0.00000          -0.032831           -0.89337
    145       0.00000          -0.031192           -0.84877
    146       0.00000          -0.028846           -0.78493
    147       0.00000          -0.019649           -0.53467
    148       0.00000          -0.014399           -0.39180
    149       0.00000          -0.012886           -0.35065
    150       0.00000          -0.010412           -0.28333
    151       0.00000          -0.008416           -0.22902
    152       0.00000          -0.005175           -0.14081
    153       0.00000          -0.002199           -0.05983
    154       0.00000          -0.000732           -0.01991
    155       0.00000           0.003765            0.10245
    156       0.00000           0.005657            0.15394
    157       0.00000           0.007981            0.21718
    158       0.00000           0.012130            0.33007
    159       0.00000           0.015295            0.41619
    160       0.00000           0.021707            0.59068
    161       0.00000           0.023831            0.64848
    162       0.00000           0.028700            0.78096
    163       0.00000           0.034007            0.92538
    164       0.00000           0.034862            0.94865
    165       0.00000           0.036294            0.98761
    166       0.00000           0.039015            1.06165
    167       0.00000           0.041273            1.12309
    168       0.00000           0.043777            1.19123
    169       0.00000           0.048431            1.31788
    170       0.00000           0.050921            1.38564
    171       0.00000           0.052171            1.41964
    172       0.00000           0.052889            1.43918
    173       0.00000           0.056415            1.53512
    174       0.00000           0.058653            1.59603
    175       0.00000           0.061855            1.68316
    176       0.00000           0.063107            1.71722
    177       0.00000           0.064063            1.74325
    178       0.00000           0.066694            1.81484
    179       0.00000           0.069559            1.89279
    180       0.00000           0.074197            2.01901
    181       0.00000           0.076811            2.09012
    182       0.00000           0.079521            2.16388
    183       0.00000           0.081637            2.22145
    184       0.00000           0.082546            2.24620
    185       0.00000           0.084218            2.29170
    186       0.00000           0.087871            2.39110
    187       0.00000           0.091051            2.47761
    188       0.00000           0.092561            2.51872
    189       0.00000           0.094283            2.56558
    190       0.00000           0.097963            2.66570
    191       0.00000           0.100559            2.73636
    192       0.00000           0.102631            2.79272
    193       0.00000           0.105080            2.85938
    194       0.00000           0.109374            2.97621
    195       0.00000           0.110675            3.01162
    196       0.00000           0.114635            3.11936
    197       0.00000           0.116494            3.16997
    198       0.00000           0.117253            3.19061
    199       0.00000           0.120312            3.27385
    200       0.00000           0.121117            3.29577
    201       0.00000           0.124011            3.37452
    202       0.00000           0.127620            3.47270
    203       0.00000           0.129634            3.52752
    204       0.00000           0.130894            3.56181
    205       0.00000           0.133800            3.64090
    206       0.00000           0.135994            3.70060
    207       0.00000           0.138679            3.77366
    208       0.00000           0.143105            3.89408
    209       0.00000           0.146641            3.99029
    210       0.00000           0.148683            4.04587
    211       0.00000           0.151534            4.12344
    212       0.00000           0.154039            4.19161
    213       0.00000           0.154777            4.21171
    214       0.00000           0.158240            4.30592
    215       0.00000           0.163007            4.43565
    216       0.00000           0.164220            4.46866
    217       0.00000           0.165742            4.51006
    218       0.00000           0.167238            4.55077
    219       0.00000           0.169443            4.61078
    220       0.00000           0.169860            4.62212
    221       0.00000           0.174889            4.75898
    222       0.00000           0.176247            4.79592
    223       0.00000           0.179630            4.88797
    224       0.00000           0.181015            4.92566
    225       0.00000           0.185679            5.05260
    226       0.00000           0.186335            5.07042
    227       0.00000           0.189146            5.14693
    228       0.00000           0.193185            5.25682
    229       0.00000           0.194933            5.30439
    230       0.00000           0.197256            5.36761
    231       0.00000           0.200393            5.45298
    232       0.00000           0.204288            5.55897
    233       0.00000           0.205891            5.60257
    234       0.00000           0.207667            5.65091
    235       0.00000           0.212685            5.78745
    236       0.00000           0.213922            5.82110
    237       0.00000           0.216259            5.88469
    238       0.00000           0.217094            5.90743
    239       0.00000           0.218259            5.93913
    240       0.00000           0.224171            6.10001
    241       0.00000           0.226773            6.17082
    242       0.00000           0.230729            6.27844
    243       0.00000           0.234126            6.37089
    244       0.00000           0.238853            6.49953
    245       0.00000           0.241092            6.56044
    246       0.00000           0.243751            6.63281
    247       0.00000           0.245573            6.68239
    248       0.00000           0.251354            6.83969
    249       0.00000           0.252765            6.87808
    250       0.00000           0.257327            7.00223
    251       0.00000           0.263104            7.15941
    252       0.00000           0.267274            7.27290
    253       0.00000           0.271059            7.37590
    254       0.00000           0.276646            7.52792
    255       0.00000           0.278281            7.57241
    256       0.00000           0.280490            7.63251

  Highest occupied state (VBM) at     -9.17294031 eV
  | Occupation number:      2.00000000

  Lowest unoccupied state (CBM) at    -7.50644876 eV
  | Occupation number:      0.00000000

  Overall HOMO-LUMO gap:      1.66649155 eV.
  Calculating total energy contributions from superposition of free atom densities.

  Total energy components:
  | Sum of eigenvalues            :        -838.65313760 Ha      -22820.91298929 eV
  | XC energy correction          :        -198.09951173 Ha       -5390.56198296 eV
  | XC potential correction       :         254.46557634 Ha        6924.36063979 eV
  | Free-atom electrostatic energy:        -602.72903540 Ha      -16401.09153171 eV
  | Hartree energy correction     :           0.00000000 Ha           0.00000000 eV
  | Entropy correction            :           0.00000000 Ha           0.00000000 eV
  | ---------------------------
  | Total energy                  :       -1385.01610839 Ha      -37688.20586417 eV
  | Total energy, T -> 0          :       -1385.01610839 Ha      -37688.20586417 eV  <-- do not rely on this value for anything but (periodic) metals
  | Electronic free energy        :       -1385.01610839 Ha      -37688.20586417 eV

  Derived energy quantities:
  | Kinetic energy                :        1372.85844799 Ha       37357.37909221 eV
  | Electrostatic energy          :       -2559.77504465 Ha      -69655.02297342 eV
  | Energy correction for multipole
  | error in Hartree potential    :           0.00000000 Ha           0.00000000 eV
  | Sum of eigenvalues per atom                           :        -407.51630338 eV
  | Total energy (T->0) per atom                          :        -673.00367615 eV  <-- do not rely on this value for anything but (periodic) metals
  | Electronic free energy per atom                       :        -673.00367615 eV
  Initialize hartree_potential_storage
  Max. number of atoms included in rho_multipole:           56

  End scf initialization - timings             :  max(cpu_time)    wall_clock(cpu1)
  | Time for scf. initialization               :       10.836 s          10.915 s
  | Boundary condition initialization          :        0.001 s           0.004 s
  | Integration                                :        8.415 s           8.422 s
  | Solution of K.-S. eqns.                    :        0.306 s           0.327 s
  | Grid partitioning                          :        0.897 s           0.903 s
  | Preloading free-atom quantities on grid    :        0.014 s           0.018 s
  | Free-atom superposition energy             :        0.088 s           0.090 s
  | Total energy evaluation                    :        0.001 s           0.004 s

  Partial memory accounting:
  | Current value for overall tracked memory usage on task 0  :           5.477 MB
  | Peak value for overall tracked memory usage on task 0     :          32.469 MB after allocating zora_vector2
  | Largest tracked array allocation on task 0 so far         :           9.804 MB  when allocating hamiltonian_shell
  Note:  These values currently only include a subset of arrays which are explicitly tracked.
  The "true" memory usage will be greater.
------------------------------------------------------------

------------------------------------------------------------
          Begin self-consistency iteration #    1

  Date     :  20210727, Time     :  230850.127
------------------------------------------------------------
  Evaluating new KS density.
  Integration grid: deviation in total charge (<rho> - N_e) =   2.842171E-14
  Pulay mixing of updated and previous charge densities.

  Evaluating partitioned Hartree potential by multipole expansion.
  | Analytical far-field extrapolation by fixed multipoles:
  | Hartree multipole sum: apparent total charge =  -0.462870E-04
  Summing up the Hartree potential with load balancing.
  Time summed over all CPUs for potential: real work       33.136 s, elapsed       57.475 s
  | RMS charge density error from multipole expansion :   0.145759E-01

  Start compute_balanced_batch_distribution
  Done load balancing, time needed:      0.007 s
  Integrating Hamiltonian matrix: batch-based integration with load balancing
  Time summed over all CPUs for integration: real work      215.135 s, elapsed      244.718 s
  Time get_set_full_local_matrix_scalapack:     0.023312 s
  Start compute_balanced_batch_distribution
  Done load balancing, time needed:      0.008 s

  Updating Kohn-Sham eigenvalues and eigenvectors using ELSI and the ELPA eigensolver.
  Finished transformation to standard eigenproblem
  | Time :     0.020 s
  Starting ELPA eigensolver
  Finished solving standard eigenproblem
  | Time :     0.117 s
  Finished back-transformation of eigenvectors
  | Time :     0.005 s

  Obtaining occupation numbers and chemical potential using ELSI.
  | Chemical potential (Fermi level):    -5.75843494 eV
  Writing Kohn-Sham eigenvalues.

  State    Occupation    Eigenvalue [Ha]    Eigenvalue [eV]
      1       2.00000         -10.002468         -272.18099
      2       2.00000          -9.997351         -272.04177
      3       2.00000          -9.996964         -272.03123
      4       2.00000          -9.995886         -272.00189
      5       2.00000          -9.986398         -271.74371
      6       2.00000          -9.985719         -271.72524
      7       2.00000          -9.984600         -271.69479
      8       2.00000          -9.984217         -271.68438
      9       2.00000          -9.983614         -271.66797
     10       2.00000          -9.979664         -271.56048
     11       2.00000          -9.979144         -271.54633
     12       2.00000          -9.977513         -271.50193
     13       2.00000          -9.975666         -271.45169
     14       2.00000          -9.973273         -271.38657
     15       2.00000          -9.968477         -271.25605
     16       2.00000          -9.964471         -271.14706
     17       2.00000          -9.955038         -270.89037
     18       2.00000          -9.952917         -270.83266
     19       2.00000          -9.950697         -270.77225
     20       2.00000          -9.949226         -270.73222
     21       2.00000          -9.948119         -270.70208
     22       2.00000          -9.946573         -270.66003
     23       2.00000          -9.946351         -270.65398
     24       2.00000          -9.945822         -270.63960
     25       2.00000          -9.945050         -270.61859
     26       2.00000          -9.944758         -270.61063
     27       2.00000          -9.944736         -270.61005
     28       2.00000          -9.943149         -270.56685
     29       2.00000          -9.942541         -270.55031
     30       2.00000          -9.942279         -270.54317
     31       2.00000          -9.941616         -270.52513
     32       2.00000          -9.941611         -270.52500
     33       2.00000          -9.941006         -270.50853
     34       2.00000          -9.940517         -270.49522
     35       2.00000          -9.939021         -270.45451
     36       2.00000          -9.937456         -270.41193
     37       2.00000          -0.890461          -24.23067
     38       2.00000          -0.863813          -23.50553
     39       2.00000          -0.857713          -23.33956
     40       2.00000          -0.844063          -22.96811
     41       2.00000          -0.828603          -22.54742
     42       2.00000          -0.816928          -22.22974
     43       2.00000          -0.813174          -22.12760
     44       2.00000          -0.790496          -21.51048
     45       2.00000          -0.777358          -21.15298
     46       2.00000          -0.762768          -20.75596
     47       2.00000          -0.753223          -20.49625
     48       2.00000          -0.741217          -20.16954
     49       2.00000          -0.736951          -20.05344
     50       2.00000          -0.730739          -19.88441
     51       2.00000          -0.725961          -19.75441
     52       2.00000          -0.720168          -19.59676
     53       2.00000          -0.717328          -19.51948
     54       2.00000          -0.691895          -18.82742
     55       2.00000          -0.652084          -17.74412
     56       2.00000          -0.640767          -17.43617
     57       2.00000          -0.639828          -17.41061
     58       2.00000          -0.630840          -17.16602
     59       2.00000          -0.617262          -16.79654
     60       2.00000          -0.613275          -16.68807
     61       2.00000          -0.609979          -16.59838
     62       2.00000          -0.606300          -16.49827
     63       2.00000          -0.591952          -16.10784
     64       2.00000          -0.577981          -15.72766
     65       2.00000          -0.568117          -15.45925
     66       2.00000          -0.546102          -14.86018
     67       2.00000          -0.541251          -14.72818
     68       2.00000          -0.529044          -14.39603
     69       2.00000          -0.526934          -14.33860
     70       2.00000          -0.517177          -14.07311
     71       2.00000          -0.515024          -14.01452
     72       2.00000          -0.505679          -13.76021
     73       2.00000          -0.501607          -13.64943
     74       2.00000          -0.488584          -13.29506
     75       2.00000          -0.479390          -13.04487
     76       2.00000          -0.476909          -12.97735
     77       2.00000          -0.473240          -12.87752
     78       2.00000          -0.464560          -12.64131
     79       2.00000          -0.459837          -12.51281
     80       2.00000          -0.454964          -12.38019
     81       2.00000          -0.450205          -12.25070
     82       2.00000          -0.444064          -12.08358
     83       2.00000          -0.439561          -11.96106
     84       2.00000          -0.437877          -11.91523
     85       2.00000          -0.434934          -11.83515
     86       2.00000          -0.434445          -11.82185
     87       2.00000          -0.433255          -11.78946
     88       2.00000          -0.425024          -11.56550
     89       2.00000          -0.420209          -11.43447
     90       2.00000          -0.416974          -11.34643
     91       2.00000          -0.414894          -11.28985
     92       2.00000          -0.405036          -11.02159
     93       2.00000          -0.399046          -10.85860
     94       2.00000          -0.394121          -10.72459
     95       2.00000          -0.389971          -10.61166
     96       2.00000          -0.381761          -10.38825
     97       2.00000          -0.377756          -10.27928
     98       2.00000          -0.373236          -10.15627
     99       2.00000          -0.369938          -10.06652
    100       2.00000          -0.367088           -9.98896
    101       2.00000          -0.363756           -9.89831
    102       2.00000          -0.362660           -9.86849
    103       2.00000          -0.355793           -9.68161
    104       2.00000          -0.351929           -9.57648
    105       2.00000          -0.349928           -9.52201
    106       2.00000          -0.343961           -9.35967
    107       2.00000          -0.334735           -9.10862
    108       2.00000          -0.320961           -8.73380
    109       2.00000          -0.307301           -8.36208
    110       2.00000          -0.295933           -8.05276
    111       2.00000          -0.281813           -7.66851
    112       2.00000          -0.278675           -7.58314
    113       2.00000          -0.275360           -7.49293
    114       2.00000          -0.273130           -7.43225
    115       2.00000          -0.264834           -7.20650
    116       2.00000          -0.254302           -6.91992
    117       2.00000          -0.253540           -6.89918
    118       2.00000          -0.213946           -5.82177
    119       0.00000          -0.154962           -4.21673
    120       0.00000          -0.113021           -3.07545
    121       0.00000          -0.111574           -3.03607
    122       0.00000          -0.100648           -2.73878
    123       0.00000          -0.094916           -2.58279
    124       0.00000          -0.091182           -2.48118
    125       0.00000          -0.084029           -2.28654
    126       0.00000          -0.080953           -2.20284
    127       0.00000          -0.066145           -1.79990
    128       0.00000          -0.050856           -1.38387
    129       0.00000          -0.038177           -1.03884
    130       0.00000          -0.029673           -0.80744
    131       0.00000          -0.026400           -0.71837
    132       0.00000          -0.021722           -0.59109
    133       0.00000          -0.014995           -0.40803
    134       0.00000          -0.009275           -0.25238
    135       0.00000          -0.003005           -0.08177
    136       0.00000          -0.001490           -0.04056
    137       0.00000           0.004256            0.11580
    138       0.00000           0.005441            0.14806
    139       0.00000           0.007378            0.20076
    140       0.00000           0.010696            0.29106
    141       0.00000           0.014161            0.38535
    142       0.00000           0.019141            0.52086
    143       0.00000           0.024370            0.66314
    144       0.00000           0.028199            0.76733
    145       0.00000           0.030430            0.82804
    146       0.00000           0.032667            0.88891
    147       0.00000           0.035503            0.96608
    148       0.00000           0.042843            1.16582
    149       0.00000           0.046216            1.25759
    150       0.00000           0.053811            1.46426
    151       0.00000           0.056279            1.53143
    152       0.00000           0.064754            1.76203
    153       0.00000           0.068198            1.85575
    154       0.00000           0.072094            1.96177
    155       0.00000           0.073408            1.99753
    156       0.00000           0.077092            2.09777
    157       0.00000           0.082452            2.24363
    158       0.00000           0.086693            2.35905
    159       0.00000           0.089970            2.44822
    160       0.00000           0.092245            2.51013
    161       0.00000           0.097792            2.66106
    162       0.00000           0.098621            2.68361
    163       0.00000           0.103992            2.82978
    164       0.00000           0.107603            2.92803
    165       0.00000           0.110148            2.99728
    166       0.00000           0.112056            3.04920
    167       0.00000           0.116685            3.17516
    168       0.00000           0.119635            3.25543
    169       0.00000           0.122896            3.34418
    170       0.00000           0.125502            3.41510
    171       0.00000           0.128820            3.50536
    172       0.00000           0.129564            3.52561
    173       0.00000           0.131421            3.57615
[...]
     86       2.00000          -0.372569          -10.13812
     87       2.00000          -0.370559          -10.08343
     88       2.00000          -0.367967          -10.01288
     89       2.00000          -0.361938           -9.84884
     90       2.00000          -0.358339           -9.75090
     91       2.00000          -0.354610           -9.64942
     92       2.00000          -0.352881           -9.60237
     93       2.00000          -0.348526           -9.48389
     94       2.00000          -0.339493           -9.23809
     95       2.00000          -0.334515           -9.10262
     96       2.00000          -0.324913           -8.84132
     97       2.00000          -0.322099           -8.76477
     98       2.00000          -0.318792           -8.67478
     99       2.00000          -0.313952           -8.54307
    100       2.00000          -0.310653           -8.45331
    101       2.00000          -0.308150           -8.38518
    102       2.00000          -0.303910           -8.26981
    103       2.00000          -0.301762           -8.21137
    104       2.00000          -0.300468           -8.17615
    105       2.00000          -0.293385           -7.98342
    106       2.00000          -0.282842           -7.69654
    107       2.00000          -0.276974           -7.53685
    108       2.00000          -0.270509           -7.36093
    109       2.00000          -0.261799           -7.12390
    110       2.00000          -0.252641           -6.87471
    111       2.00000          -0.241962           -6.58411
    112       2.00000          -0.235665           -6.41276
    113       2.00000          -0.230544           -6.27341
    114       2.00000          -0.229108           -6.23434
    115       2.00000          -0.224177           -6.10017
    116       2.00000          -0.210619           -5.73123
    117       2.00000          -0.208274           -5.66742
    118       2.00000          -0.167229           -4.55054
    119       0.00000          -0.108266           -2.94607
    120       0.00000          -0.068235           -1.85677
    121       0.00000          -0.066244           -1.80259
    122       0.00000          -0.055314           -1.50516
    123       0.00000          -0.052849           -1.43808
    124       0.00000          -0.047607           -1.29544
    125       0.00000          -0.041682           -1.13423
    126       0.00000          -0.039030           -1.06205
    127       0.00000          -0.020927           -0.56945
    128       0.00000          -0.009685           -0.26354
    129       0.00000          -0.005459           -0.14855
    130       0.00000          -0.003718           -0.10116
    131       0.00000           0.000038            0.00105
    132       0.00000           0.006734            0.18323
    133       0.00000           0.007172            0.19516
    134       0.00000           0.011879            0.32323
    135       0.00000           0.017304            0.47087
    136       0.00000           0.019651            0.53473
    137       0.00000           0.023953            0.65180
    138       0.00000           0.028186            0.76698
    139       0.00000           0.034147            0.92918
    140       0.00000           0.041749            1.13604
    141       0.00000           0.046656            1.26958
    142       0.00000           0.048366            1.31611
    143       0.00000           0.050447            1.37273
    144       0.00000           0.053925            1.46736
    145       0.00000           0.056890            1.54806
    146       0.00000           0.059687            1.62416
    147       0.00000           0.063605            1.73078
    148       0.00000           0.067015            1.82358
    149       0.00000           0.070263            1.91195
    150       0.00000           0.078255            2.12942
    151       0.00000           0.083494            2.27199
    152       0.00000           0.093030            2.53146
    153       0.00000           0.096392            2.62296
    154       0.00000           0.097436            2.65137
    155       0.00000           0.101633            2.76558
    156       0.00000           0.107670            2.92986
    157       0.00000           0.114401            3.11301
    158       0.00000           0.116012            3.15684
    159       0.00000           0.119063            3.23986
    160       0.00000           0.123127            3.35046
    161       0.00000           0.125938            3.42695
    162       0.00000           0.129619            3.52710
    163       0.00000           0.133869            3.64277
    164       0.00000           0.139368            3.79240
    165       0.00000           0.141016            3.83723
    166       0.00000           0.146164            3.97732
    167       0.00000           0.147643            4.01758
    168       0.00000           0.149730            4.07436
    169       0.00000           0.152995            4.16320
    170       0.00000           0.157878            4.29607
    171       0.00000           0.158493            4.31283
    172       0.00000           0.162316            4.41685
    173       0.00000           0.164808            4.48466
    174       0.00000           0.166632            4.53429
    175       0.00000           0.168282            4.57919
    176       0.00000           0.169202            4.60422
    177       0.00000           0.171994            4.68021
    178       0.00000           0.175598            4.77825
    179       0.00000           0.180776            4.91917
    180       0.00000           0.182080            4.95466
    181       0.00000           0.184356            5.01658
    182       0.00000           0.185974            5.06060
    183       0.00000           0.187577            5.10424
    184       0.00000           0.188558            5.13091
    185       0.00000           0.192513            5.23854
    186       0.00000           0.195085            5.30854
    187       0.00000           0.199203            5.42058
    188       0.00000           0.199384            5.42551
    189       0.00000           0.203558            5.53909
    190       0.00000           0.205483            5.59147
    191       0.00000           0.208507            5.67376
    192       0.00000           0.213222            5.80207
    193       0.00000           0.214323            5.83203
    194       0.00000           0.216594            5.89382
    195       0.00000           0.217637            5.92219
    196       0.00000           0.221271            6.02109
    197       0.00000           0.222061            6.04258
    198       0.00000           0.225593            6.13869
    199       0.00000           0.227950            6.20284
    200       0.00000           0.229521            6.24558
    201       0.00000           0.232304            6.32131
    202       0.00000           0.233534            6.35480
    203       0.00000           0.235890            6.41890
    204       0.00000           0.238240            6.48284
    205       0.00000           0.240766            6.55157
    206       0.00000           0.242547            6.60005
    207       0.00000           0.244103            6.64237
    208       0.00000           0.245578            6.68251
    209       0.00000           0.248466            6.76111
    210       0.00000           0.250901            6.82737
    211       0.00000           0.253835            6.90720
    212       0.00000           0.255603            6.95530
    213       0.00000           0.256805            6.98801
    214       0.00000           0.260300            7.08314
    215       0.00000           0.267072            7.26740
    216       0.00000           0.268861            7.31608
    217       0.00000           0.270475            7.36000
    218       0.00000           0.273044            7.42990
    219       0.00000           0.275023            7.48376
    220       0.00000           0.278426            7.57635
    221       0.00000           0.283230            7.70709
    222       0.00000           0.286754            7.80298
    223       0.00000           0.289107            7.86700
    224       0.00000           0.290913            7.91615
    225       0.00000           0.293540            7.98762
    226       0.00000           0.295309            8.03577
    227       0.00000           0.298834            8.13168
    228       0.00000           0.303939            8.27059
    229       0.00000           0.305992            8.32646
    230       0.00000           0.307641            8.37135
    231       0.00000           0.310844            8.45848
    232       0.00000           0.312128            8.49342
    233       0.00000           0.316450            8.61105
    234       0.00000           0.320114            8.71074
    235       0.00000           0.322053            8.76351
    236       0.00000           0.323115            8.79242
    237       0.00000           0.328197            8.93070
    238       0.00000           0.332691            9.05300
    239       0.00000           0.333061            9.06305
    240       0.00000           0.337084            9.17252
    241       0.00000           0.339111            9.22769
    242       0.00000           0.343746            9.35379
    243       0.00000           0.347271            9.44972
    244       0.00000           0.351442            9.56323
    245       0.00000           0.353934            9.63104
    246       0.00000           0.358932            9.76703
    247       0.00000           0.362404            9.86151
    248       0.00000           0.364454            9.91729
    249       0.00000           0.368648           10.03142
    250       0.00000           0.370669           10.08641
    251       0.00000           0.377565           10.27407
    252       0.00000           0.381199           10.37295
    253       0.00000           0.381876           10.39137
    254       0.00000           0.384008           10.44939
    255       0.00000           0.386126           10.50703
    256       0.00000           0.393577           10.70979

  Highest occupied state (VBM) at     -4.55053516 eV
  | Occupation number:      2.00000000

  Lowest unoccupied state (CBM) at    -2.94607137 eV
  | Occupation number:      0.00000000

  Overall HOMO-LUMO gap:      1.60446379 eV.

  Total energy components:
  | Sum of eigenvalues            :        -787.52509874 Ha      -21429.64826525 eV
  | XC energy correction          :        -201.67765067 Ha       -5487.92809749 eV
  | XC potential correction       :         259.08899414 Ha        7050.17023929 eV
  | Free-atom electrostatic energy:        -602.72903540 Ha      -16401.09153171 eV
  | Hartree energy correction     :         -50.51045535 Ha       -1374.45942170 eV
  | Entropy correction            :           0.00000000 Ha           0.00000000 eV
  | ---------------------------
  | Total energy                  :       -1383.35324602 Ha      -37642.95707687 eV
  | Total energy, T -> 0          :       -1383.35324602 Ha      -37642.95707687 eV  <-- do not rely on this value for anything but (periodic) metals
  | Electronic free energy        :       -1383.35324602 Ha      -37642.95707687 eV

  Derived energy quantities:
  | Kinetic energy                :        1380.04463243 Ha       37552.92512014 eV
  | Electrostatic energy          :       -2561.72022778 Ha      -69707.95409951 eV
  | Energy correction for multipole
  | error in Hartree potential    :          -0.17163411 Ha          -4.67040182 eV
  | Sum of eigenvalues per atom                           :        -382.67229045 eV
  | Total energy (T->0) per atom                          :        -672.19566209 eV  <-- do not rely on this value for anything but (periodic) metals
  | Electronic free energy per atom                       :        -672.19566209 eV
  End evaluation of scaled ZORA corrections.
  | Time for scaled ZORA corrections           :        8.033 s           8.046 s
------------------------------------------------------------

  Energy and forces in a compact form:
  | Total energy uncorrected      :         -0.376429570768658E+05 eV
  | Total energy corrected        :         -0.376429570768658E+05 eV  <-- do not rely on this value for anything but (periodic) metals
  | Electronic free energy        :         -0.376429570768658E+05 eV

  ------------------------------------ 
  Start decomposition of the XC Energy 
  ------------------------------------ 
  X and C from original XC functional choice 
  Hartree-Fock Energy :          0.000000000 Ha              0.000000000 eV
  X Energy            :       -193.727400518 Ha          -5271.590783670 eV
  C Energy            :         -7.950250154 Ha           -216.337313822 eV
  Total XC Energy     :       -201.677650672 Ha          -5487.928097493 eV
  ------------------------------------ 
  LDA X and C from self-consistent density 
  X Energy LDA        :       -175.504888523 Ha          -4775.731003221 eV
  C Energy LDA        :        -15.277211521 Ha           -415.714076776 eV
  ------------------------------------ 
  End decomposition of the XC Energy 
  ------------------------------------ 

------------------------------------------------------------

------------------------------------------------------------------------------
  Final output of selected total energy values:

  The following output summarizes some interesting total energy values
  at the end of a run (AFTER all relaxation, molecular dynamics, etc.).

  | Total energy of the DFT / Hartree-Fock s.c.f. calculation      :         -37642.957076866 eV
  | Final zero-broadening corrected energy (caution - metals only) :         -37642.957076866 eV
  | For reference only, the value of 1 Hartree used in FHI-aims is :             27.211384500 eV

  Before relying on these values, please be sure to understand exactly which
  total energy value is referred to by a given number. Different objects may
  all carry the same name 'total energy'. Definitions:

  Total energy of the DFT / Hartree-Fock s.c.f. calculation:
  | Note that this energy does not include ANY quantities calculated after the
  | s.c.f. cycle, in particular not ANY RPA, MP2, etc. many-body perturbation terms.
  | Scalar relativistic effects have been included in the 'scaled ZORA' approximation.

  Final zero-broadening corrected energy:
  | For metallic systems only, a broadening of the occupation numbers at the Fermi
  | level can be extrapolated back to zero broadening by an electron-gas inspired
  | formula. For all systems that are not real metals, this value can be
  | meaningless and should be avoided.

------------------------------------------------------------------------------
  Methods described in the following list of references were used in this FHI-aims run.
  If you publish the results, please make sure to cite these reference if they apply.
  FHI-aims is an academic code, and for our developers (often, Ph.D. students
  and postdocs), scientific credit in the community is essential.
  Thank you for helping us!

  For any use of FHI-aims, please cite:

    Volker Blum, Ralf Gehrke, Felix Hanke, Paula Havu, Ville Havu,
    Xinguo Ren, Karsten Reuter, and Matthias Scheffler
    'Ab initio molecular simulations with numeric atom-centered orbitals'
    Computer Physics Communications 180, 2175-2196 (2009)
    http://dx.doi.org/10.1016/j.cpc.2009.06.022


  The scalable eigensolver library ELPA was used in your run.
  ELPA is essential especially for large systems on hundreds or thousands of CPUs.
  For ELPA, please cite:

    Andreas Marek, Volker Blum, Rainer Johanni, Ville Havu, Bruno Lang,
    Thomas Auckenthaler, Alexander Heinecke, Hans-Joachim Bungartz, and Hermann Lederer,
    'The ELPA Library - Scalable Parallel Eigenvalue Solutions
    for Electronic Structure Theory and Computational Science'
    The Journal of Physics: Condensed Matter 26, 213201 (2014).
    http://dx.doi.org/10.1088/0953-8984/26/21/213201


  The ELSI infrastructure was used in your run to solve the Kohn-Sham electronic structure.
  Please check out http://elsi-interchange.org to learn more.
  If scalability is important for your project, please acknowledge ELSI by citing:

    V. W-z. Yu, F. Corsetti, A. Garcia, W. P. Huhn, M. Jacquelin, W. Jia,
    B. Lange, L. Lin, J. Lu, W. Mi, A. Seifitokaldani, A. Vazquez-Mayagoitia,
    C. Yang, H. Yang, and V. Blum
    'ELSI: A unified software interface for Kohn-Sham electronic structure solvers'
    Computer Physics Communications 222, 267-285 (2018).
    http://dx.doi.org/10.1016/j.cpc.2017.09.007


  For the real-space grid partitioning and parallelization used in this calculation, please cite:

    Ville Havu, Volker Blum, Paula Havu, and Matthias Scheffler,
    'Efficient O(N) integration for all-electron electronic structure calculation'
    'using numerically tabulated basis functions'
    Journal of Computational Physics 228, 8367-8379 (2009).
    http://dx.doi.org/10.1016/j.jcp.2009.08.008

  Of course, there are many other important community references, e.g., those cited in the
  above references. Our list is limited to references that describe implementations in the
  FHI-aims code. The reason is purely practical (length of this list) - please credit others as well.

------------------------------------------------------------
          Leaving FHI-aims.
          Date     :  20210727, Time     :  231108.047

          Computational steps:
          | Number of self-consistency cycles          :           19
          | Number of SCF (re)initializations          :            1

          Detailed time accounting                     :  max(cpu_time)    wall_clock(cpu1)
          | Total time                                 :      149.008 s         149.282 s
          | Preparation time                           :        0.203 s           0.205 s
          | Boundary condition initalization           :        0.001 s           0.004 s
          | Grid partitioning                          :        0.897 s           0.903 s
          | Preloading free-atom quantities on grid    :        0.014 s           0.018 s
          | Free-atom superposition energy             :        0.088 s           0.090 s
          | Total time for integrations                :       86.320 s          86.328 s
          | Total time for solution of K.-S. equations :        4.174 s           4.203 s
          | Total time for density update              :       34.419 s          34.365 s
          | Total time for mixing                      :        0.179 s           0.185 s
          | Total time for Hartree multipole update    :        0.195 s           0.200 s
          | Total time for Hartree multipole sum       :       13.085 s          13.087 s
          | Total time for total energy evaluation     :        0.008 s           0.035 s
          | Total time for scaled ZORA corrections     :        8.033 s           8.046 s

          Partial memory accounting:
          | Residual value for overall tracked memory usage across tasks :     0.000000 MB (should be 0.000000 MB)
          | Peak values for overall tracked memory usage (after allocating zora_vector2):
          |   Minimum:       32.530 MB (on task 33)
          |   Maximum:       43.254 MB (on task 43)
          |   Average:       37.466 MB
          | Largest tracked array allocation (hamiltonian_shell):
          |   Minimum:        9.804 MB (on task  1)
          |   Maximum:        9.804 MB (on task  1)
          |   Average:        9.804 MB
          Note:  These values currently only include a subset of arrays which are explicitly tracked.
          The "true" memory usage will be greater.

          Have a nice day.
------------------------------------------------------------
