  MPI-parallelism will be employed.
------------------------------------------------------------
          Invoking FHI-aims ...
          Version 180607
          Git rev. (modified): 6724847 Fix JSON memory corruption in scf_solver
          Compiled on 2018/06/27 at 16:00:31 on host coe.psc.edu.

          When using FHI-aims, please cite the following reference:

          Volker Blum, Ralf Gehrke, Felix Hanke, Paula Havu,
          Ville Havu, Xinguo Ren, Karsten Reuter, and Matthias Scheffler,
          'Ab Initio Molecular Simulations with Numeric Atom-Centered Orbitals',
          Computer Physics Communications 180, 2175-2196 (2009)

          For any questions about FHI-aims, please visit the aimsclub website
          with its forums and wiki. Contributions to both the forums and the
          wiki are warmly encouraged - they are for you, and everyone is welcome there.

------------------------------------------------------------



  Date     :  20210620, Time     :  174453.307
  Time zero on CPU 1             :   0.385311000000000E+00  s.
  Internal wall clock time zero  :           393443093.307  s.

  FHI-aims created a unique identifier for this run for later identification
  aims_uuid : F7866085-A149-4C6F-A0FD-F8B1A42828BA

  Using       56 parallel tasks.
  Task        0 on host f001 reporting.
  Task        1 on host f001 reporting.
  Task        2 on host f001 reporting.
  Task        3 on host f001 reporting.
  Task        4 on host f001 reporting.
  Task        5 on host f001 reporting.
  Task        6 on host f001 reporting.
  Task        7 on host f001 reporting.
  Task        8 on host f001 reporting.
  Task        9 on host f001 reporting.
  Task       10 on host f001 reporting.
  Task       11 on host f001 reporting.
  Task       12 on host f001 reporting.
  Task       13 on host f001 reporting.
  Task       14 on host f001 reporting.
  Task       15 on host f001 reporting.
  Task       16 on host f001 reporting.
  Task       17 on host f001 reporting.
  Task       18 on host f001 reporting.
  Task       19 on host f001 reporting.
  Task       20 on host f001 reporting.
  Task       21 on host f001 reporting.
  Task       22 on host f001 reporting.
  Task       23 on host f001 reporting.
  Task       24 on host f001 reporting.
  Task       25 on host f001 reporting.
  Task       26 on host f001 reporting.
  Task       27 on host f001 reporting.
  Task       28 on host f001 reporting.
  Task       29 on host f001 reporting.
  Task       30 on host f001 reporting.
  Task       31 on host f001 reporting.
  Task       32 on host f001 reporting.
  Task       33 on host f001 reporting.
  Task       34 on host f001 reporting.
  Task       35 on host f001 reporting.
  Task       36 on host f001 reporting.
  Task       37 on host f001 reporting.
  Task       38 on host f001 reporting.
  Task       39 on host f001 reporting.
  Task       40 on host f001 reporting.
  Task       41 on host f001 reporting.
  Task       42 on host f001 reporting.
  Task       43 on host f001 reporting.
  Task       44 on host f001 reporting.
  Task       45 on host f001 reporting.
  Task       46 on host f001 reporting.
  Task       47 on host f001 reporting.
  Task       48 on host f001 reporting.
  Task       49 on host f001 reporting.
  Task       50 on host f001 reporting.
  Task       51 on host f001 reporting.
  Task       52 on host f001 reporting.
  Task       53 on host f001 reporting.
  Task       54 on host f001 reporting.
  Task       55 on host f001 reporting.

  Performing system and environment tests:
  *** Environment variable OMP_NUM_THREADS is not set
  *** For performance reasons you might want to set it to 1
  | Stacksize not measured: no C compiler
  | Checking for scalapack...
  | Testing pdtran()...
  | All pdtran() tests passed.

  Obtaining array dimensions for all initial allocations:
  
  -----------------------------------------------------------------------
  Parsing control.in (first pass over file, find array dimensions only).
  The contents of control.in will be repeated verbatim below
  unless switched off by setting 'verbatim_writeout .false.' .
  in the first line of control.in .
  -----------------------------------------------------------------------
  
  #===============================================================================
  # FHI-aims file: ./Runs/es/control.in
  # Created using the Atomic Simulation Environment (ASE)
  # Mon Jan 13 16:04:38 2020
  #===============================================================================
  xc                                 pbe
  relativistic                       zora scalar 1e-12
  occupation_type                    gaussian 0.0001
  load_balancing                     .true.
  KS_method                          scalapack_fast
  mixer                              pulay
  n_max_pulay                        5
  charge_mix_param                   0.4
  sc_accuracy_etot                   1e-6
  sc_accuracy_eev                    1e-4
  sc_accuracy_rho                    1e-6
  sc_iter_limit                      100
  prodbas_threshold                  1e-4
  basis_threshold                    1e-5
  override_illconditioning           .true.
  use_logsbt                         .true.
  spin                               none
  charge                             0
  #===============================================================================
  
  ################################################################################
  #
  #  FHI-aims code project
  # Volker Blum, Fritz Haber Institute Berlin, 2009
  #
  #  Suggested "tight" defaults for H atom (to be pasted into control.in file)
  #
  ################################################################################
    species        H
  #     global species definitions
      nucleus             1
      mass                1.00794
  #
      l_hartree           6
  #
      cut_pot             4.0  2.0  1.0
      basis_dep_cutoff    1e-4
  #
      radial_base         24 7.0
      radial_multiplier   2
      angular_grids       specified
        division   0.1930   50
        division   0.3175  110
        division   0.4293  194
        division   0.5066  302
        division   0.5626  434
  #      division   0.5922  590
  #      division   0.6227  974
  #      division   0.6868 1202
  #      outer_grid  770
        outer_grid  434
  ################################################################################
  #
  #  Definition of "minimal" basis
  #
  ################################################################################
  #     valence basis states
      valence      1  s   1.
  #     ion occupancy
      ion_occ      1  s   0.5
  ################################################################################
  #
  #  Suggested additional basis functions. For production calculations,
  #  uncomment them one after another (the most important basis functions are
  #  listed first).
  #
  #  Basis constructed for dimers: 0.5 A, 0.7 A, 1.0 A, 1.5 A, 2.5 A
  #
  ################################################################################
  #  "First tier" - improvements: -1014.90 meV to -62.69 meV
       hydro 2 s 2.1
       hydro 2 p 3.5
  #  "Second tier" - improvements: -12.89 meV to -1.83 meV
       hydro 1 s 0.85
       hydro 2 p 3.7
       hydro 2 s 1.2
       hydro 3 d 7
  #  "Third tier" - improvements: -0.25 meV to -0.12 meV
  #     hydro 4 f 11.2
  #     hydro 3 p 4.8
  #     hydro 4 d 9
  #     hydro 3 s 3.2
  ################################################################################
  #
  # For methods that use the localized form of the "resolution of identity" for
  # the two-electron Coulomb operator (RI_method LVL), particularly Hartree-Fock and
  # hybrid density functional calculations, the highest accuracy can be obtained by
  # uncommenting the line beginning with "for_aux"  below, thus adding an extra g radial
  # function to the construction of the product basis set for the expansion.
  # See Ref. New J. Phys. 17, 093020 (2015) for more information, particularly Figs. 1 and 6.
  #
  ################################################################################
  #
  # for_aux hydro 5 g 6.0
  ################################################################################
  #
  #  FHI-aims code project
  # Volker Blum, Fritz Haber Institute Berlin, 2009
  #
  #  Suggested "tight" defaults for C atom (to be pasted into control.in file)
  #
  ################################################################################
    species        C
  #     global species definitions
      nucleus             6
      mass                12.0107
  #
      l_hartree           6
  #
      cut_pot             4.0  2.0  1.0
      basis_dep_cutoff    1e-4
  #
      radial_base         34 7.0
      radial_multiplier   2
      angular_grids specified
        division   0.2187   50
        division   0.4416  110
        division   0.6335  194
        division   0.7727  302
        division   0.8772  434
  #      division   0.9334  590
  #      division   0.9924  770
  #      division   1.0230  974
  #      division   1.5020 1202
  #     outer_grid  974
        outer_grid  434
  ################################################################################
  #
  #  Definition of "minimal" basis
  #
  ################################################################################
  #     valence basis states
      valence      2  s   2.
      valence      2  p   2.
  #     ion occupancy
      ion_occ      2  s   1.
      ion_occ      2  p   1.
  ################################################################################
  #
  #  Suggested additional basis functions. For production calculations,
  #  uncomment them one after another (the most important basis functions are
  #  listed first).
  #
  #  Constructed for dimers: 1.0 A, 1.25 A, 1.5 A, 2.0 A, 3.0 A
  #
  ################################################################################
  #  "First tier" - improvements: -1214.57 meV to -155.61 meV
       hydro 2 p 1.7
       hydro 3 d 6
       hydro 2 s 4.9
  #  "Second tier" - improvements: -67.75 meV to -5.23 meV
       hydro 4 f 9.8
       hydro 3 p 5.2
       hydro 3 s 4.3
       hydro 5 g 14.4
       hydro 3 d 6.2
  #  "Third tier" - improvements: -2.43 meV to -0.60 meV
  #     hydro 2 p 5.6
  #     hydro 2 s 1.4
  #     hydro 3 d 4.9
  #     hydro 4 f 11.2
  #  "Fourth tier" - improvements: -0.39 meV to -0.18 meV
  #     hydro 2 p 2.1
  #     hydro 5 g 16.4
  #     hydro 4 d 13.2
  #     hydro 3 s 13.6
  #     hydro 4 f 17.6
  #  Further basis functions - improvements: -0.08 meV and below
  #     hydro 3 s 2
  #     hydro 3 p 6
  #     hydro 4 d 20
  ################################################################################
  #
  # For methods that use the localized form of the "resolution of identity" for
  # the two-electron Coulomb operator (RI_method LVL), particularly Hartree-Fock and
  # hybrid density functional calculations, the highest accuracy can be obtained by
  # uncommenting the line beginning with "for_aux"  below, thus adding an extra g radial
  # function to the construction of the product basis set for the expansion.
  # See Ref. New J. Phys. 17, 093020 (2015) for more information, particularly Figs. 1 and 6.
  #
  ################################################################################
  #
  # for_aux hydro 5 g 6.0
  
  -----------------------------------------------------------------------
  Completed first pass over input file control.in .
  -----------------------------------------------------------------------
  
  
  -----------------------------------------------------------------------
  Parsing geometry.in (first pass over file, find array dimensions only).
  The contents of geometry.in will be repeated verbatim below
  unless switched off by setting 'verbatim_writeout .false.' .
  in the first line of geometry.in .
  -----------------------------------------------------------------------
  
  #=======================================================
  # FHI-aims file: geometry.in
  # Created using the Atomic Simulation Environment (ASE)
  # Sun Jun 20 15:47:02 2021
  #=======================================================
  atom 13.9847199999999994 17.2067000000000014 45.8741389999999996 C
  atom 13.9660390000000003 17.5144300000000008 44.8294509999999988 H
  atom 13.0024090000000001 17.6525269999999992 46.7657669999999968 C
  atom 15.0052350000000008 16.3810490000000009 46.3513129999999975 C
  atom 12.2062380000000008 18.3178340000000013 46.4355940000000018 H
  atom 13.0169390000000007 17.2173799999999986 48.1035660000000007 C
  atom 15.7886159999999993 16.0307439999999986 45.6793850000000035 H
  atom 15.0275069999999999 15.9595520000000004 47.6928539999999970 C
  atom 12.2218339999999994 17.5701450000000001 48.7544690000000003 H
  atom 14.0265149999999998 16.3775049999999993 48.5914319999999975 C
  atom 15.8370859999999993 15.3079649999999994 48.0109110000000001 H
  atom 14.0391370000000002 15.9303290000000004 50.0085219999999993 C
  atom 13.0125069999999994 16.3237099999999984 50.8823319999999981 C
  atom 15.0415880000000008 15.0987819999999999 50.5126020000000011 C
  atom 13.0124510000000004 15.9035089999999997 52.2270809999999983 C
  atom 12.1947939999999999 16.9588189999999983 50.5548319999999975 H
  atom 15.0347439999999999 14.6743760000000005 51.8500450000000015 C
  atom 15.8581800000000008 14.7597690000000004 49.8804090000000002 H
  atom 12.1897450000000003 16.2362520000000004 52.8555319999999966 H
  atom 14.0235979999999998 15.0824370000000005 52.7422079999999980 C
  atom 15.8415739999999996 14.0239200000000004 52.1777239999999978 H
  atom 14.0264019999999991 14.6080530000000000 54.1676730000000006 C
  atom 13.0152560000000008 15.0161149999999992 55.0598359999999971 C
  atom 15.0375490000000003 13.7869820000000001 54.6828000000000003 C
  atom 13.0084119999999999 14.5917080000000006 56.3972789999999975 C
  atom 12.2084259999999993 15.6665700000000001 54.7321570000000008 H
  atom 15.0374929999999996 13.3667800000000003 56.0275490000000005 C
  atom 15.8602550000000004 13.4542380000000001 54.0543490000000020 H
  atom 12.1918199999999999 14.9307219999999994 57.0294719999999984 H
  atom 14.0108630000000005 13.7601610000000001 56.9013589999999994 C
  atom 15.8552060000000008 12.7316710000000004 56.3550490000000011 H
  atom 14.0234850000000009 13.3129860000000004 58.3184490000000011 C
  atom 13.0224930000000008 13.7309380000000001 59.2170270000000016 C
  atom 15.0330610000000000 12.4731109999999994 58.8063149999999979 C
  atom 12.2129139999999996 14.3825249999999993 58.8989699999999985 H
  atom 13.0447649999999999 13.3094409999999996 60.5585680000000011 C
  atom 15.8281659999999995 12.1203459999999996 58.1554119999999983 H
  atom 15.0475910000000006 12.0379629999999995 60.1441140000000019 C
  atom 12.2613839999999996 13.6597460000000002 61.2304960000000023 H
  atom 14.0652799999999996 12.4837900000000008 61.0357419999999991 C
  atom 15.8437619999999999 11.3726559999999992 60.4742869999999968 H
  atom 14.0839610000000004 12.1760599999999997 62.0804299999999998 H
  
  -----------------------------------------------------------------------
  Completed first pass over input file geometry.in .
  -----------------------------------------------------------------------
  

  Basic array size parameters:
  | Number of species                 :        2
  | Number of atoms                   :       42
  | Max. basis fn. angular momentum   :        4
  | Max. atomic/ionic basis occupied n:        2
  | Max. number of basis fn. types    :        2
  | Max. radial fns per species/type  :        8
  | Max. logarithmic grid size        :     1277
  | Max. radial integration grid size :       69
  | Max. angular integration grid size:      434
  | Max. angular grid division number :        8
  | Radial grid for Hartree potential :     1277
  | Number of spin channels           :        1

------------------------------------------------------------
          Reading file control.in.
------------------------------------------------------------
  XC: Using PBE gradient-corrected functionals.
  Scalar relativistic treatment of kinetic energy: ZORA.
  Threshold value for ZORA:   0.100000E-11
  Occupation type: Gaussian broadening, width =   0.100000E-03 eV.
  Since 'load_balancing .true.' is present in control.in, automatically turning on 'use_local_index .true.'.
  Using load balancing for integrations.
  Kohn-Sham electronic structure solved by the ELSI library.
  Using pulay charge density mixing.
  Pulay mixing - number of memorized iterations:    5
  Charge density mixing - mixing parameter:     0.4000
  Convergence accuracy of total energy:  0.1000E-05
  Convergence accuracy of sum of eigenvalues:  0.1000E-03
  Convergence accuracy of self-consistent charge density:  0.1000E-05
  Maximum number of s.-c. iterations  :   100
  * Ignoring prodbas_threshold
  Threshold for basis singularities:  0.1000E-04
  override_illconditioning: Explicitly overriding any built-in checks for an ill-conditioned overlap matrix.
  *** WARNING: If you use this flag, you should really know what you are doing.
  *** DO NOT keep this flag set by default in all your control.in files.
  Using 1D integrations for auxiliary 2-center integrals.
  Spin treatment: No spin polarisation.
  Charge =   0.000000E+00: Neutral system requested explicitly.
 
  Reading configuration options for species H                   .
  | Found nuclear charge :   1.0000
  | Found atomic mass :    1.00794000000000      amu
  | Found l_max for Hartree potential  :   6
  | Found cutoff potl. onset [A], width [A], scale factor :    4.00000    2.00000    1.00000
  | Threshold for basis-dependent cutoff potential is   0.100000E-03
  | Found data for basic radial integration grid :    24 points, outermost radius =    7.000 A
  | Found multiplier for basic radial grid :   2
  | Found angular grid specification: user-specified.
  | Specified grid contains     6 separate shells.
  | Check grid settings after all constraints further below.
  | Found free-atom valence shell :  1 s   1.000
  | No ionic wave fns used. Skipping ion_occ.
  | Found hydrogenic basis function :  2 s   2.100
  | Found hydrogenic basis function :  2 p   3.500
  | Found hydrogenic basis function :  1 s   0.850
  | Found hydrogenic basis function :  2 p   3.700
  | Found hydrogenic basis function :  2 s   1.200
  | Found hydrogenic basis function :  3 d   7.000
  Species H                   : Missing cutoff potential type.
  Defaulting to exp(1/x)/(1-x)^2 type cutoff potential.
  Species H : No 'logarithmic' tag. Using default grid for free atom:
  | Default logarithmic grid data [bohr] : 0.1000E-03 0.1000E+03 0.1012E+01
  Species H : On-site basis accuracy parameter (for Gram-Schmidt orthonormalisation) not specified.
  Using default value basis_acc =  0.1000000E-03.
  Species H                   : Using default innermost maximum threshold i_radial=  2 for radial functions.
  Species H                   : Default cutoff onset for free atom density etc. : 0.40000000E+01 AA.
  Species H                   : Basic radial grid will be enhanced according to radial_multiplier =   2, to contain    49 grid points.
 
  Reading configuration options for species C                   .
  | Found nuclear charge :   6.0000
  | Found atomic mass :    12.0107000000000      amu
  | Found l_max for Hartree potential  :   6
  | Found cutoff potl. onset [A], width [A], scale factor :    4.00000    2.00000    1.00000
  | Threshold for basis-dependent cutoff potential is   0.100000E-03
  | Found data for basic radial integration grid :    34 points, outermost radius =    7.000 A
  | Found multiplier for basic radial grid :   2
  | Found angular grid specification: user-specified.
  | Specified grid contains     6 separate shells.
  | Check grid settings after all constraints further below.
  | Found free-atom valence shell :  2 s   2.000
  | Found free-atom valence shell :  2 p   2.000
  | No ionic wave fns used. Skipping ion_occ.
  | No ionic wave fns used. Skipping ion_occ.
  | Found hydrogenic basis function :  2 p   1.700
  | Found hydrogenic basis function :  3 d   6.000
  | Found hydrogenic basis function :  2 s   4.900
  | Found hydrogenic basis function :  4 f   9.800
  | Found hydrogenic basis function :  3 p   5.200
  | Found hydrogenic basis function :  3 s   4.300
  | Found hydrogenic basis function :  5 g  14.400
  | Found hydrogenic basis function :  3 d   6.200
  Species C                   : Missing cutoff potential type.
  Defaulting to exp(1/x)/(1-x)^2 type cutoff potential.
  Species C : No 'logarithmic' tag. Using default grid for free atom:
  | Default logarithmic grid data [bohr] : 0.1000E-03 0.1000E+03 0.1012E+01
  Species C : On-site basis accuracy parameter (for Gram-Schmidt orthonormalisation) not specified.
  Using default value basis_acc =  0.1000000E-03.
  Species C                   : Using default innermost maximum threshold i_radial=  2 for radial functions.
  Species C                   : Default cutoff onset for free atom density etc. : 0.40000000E+01 AA.
  Species C                   : Basic radial grid will be enhanced according to radial_multiplier =   2, to contain    69 grid points.
 
  Finished reading input file 'control.in'. Consistency checks are next.
 
  MPI_IN_PLACE appears to work with this MPI implementation.
  | Keeping use_mpi_in_place .true. (see manual).
  Target number of points in a grid batch is not set. Defaulting to  100
  Method for grid partitioning is not set. Defaulting to parallel hash+maxmin partitioning.
  Batch size limit is not set. Defaulting to    200
  By default, will store active basis functions for each batch.
  If in need of memory, prune_basis_once .false. can be used to disable this option.
  communication_type for Hartree potential was not specified.
  Defaulting to calc_hartree .
  Pulay mixer: Number of initial linear mixing iterations not set.
  Defaulting to    0 iterations.
  Work space size for distributed Hartree potential not set.
  Defaulting to   0.200000E+03 MB.
  Algorithm-dependent basis array size parameters:
  | n_max_pulay                         :        5
  Presetting      1001 iterations before the initial mixing cycle
  is restarted anyway using the sc_init_iter criterion / keyword.
  Presetting a factor      1.000 between actual scf density residual
  and density convergence criterion sc_accuracy_rho below which sc_init_iter
  takes no effect.
  Calculation of forces was not defined in control.in. No forces will be calculated.
  Geometry relaxation not requested: no relaxation will be performed.
  No accuracy limit for integral partition fn. given. Defaulting to  0.1000E-14.
  No threshold value for u(r) in integrations given. Defaulting to  0.1000E-05.
  No accuracy for occupation numbers given. Defaulting to  0.1000E-12.
  No threshold value for occupation numbers given. Defaulting to  0.0000E+00.
  No accuracy for fermi level given. Defaulting to  0.1000E-19.
  Maximum # of iterations to find E_F not set. Defaulting to  200.
  Will not use alltoall communication since running on < 1024 CPUs.
  partition_type (choice of integration weights) for integrals was not specified.
  | Using a version of the partition function of Stratmann and coworkers ('stratmann_sparse').
  | At each grid point, the set of atoms used to build the partition table is smoothly restricted to
  | only those atoms whose free-atom density would be non-zero at that grid point.
  Partitioning for Hartree potential was not defined. Using partition_type for integrals.
  | Adjusted default value of keyword multip_moments_threshold to:       0.10000000E-11
  | This value may affect high angular momentum components of the Hartree potential in periodic systems.
  No q(lm)/r^(l+1) cutoff set for long-range Hartree potential.
  | Using default value of  0.100000E-09 .
  | Verify using the multipole_threshold keyword.
  Defaulting to new monopole extrapolation.
  Density update method: automatic selection selected.
 * Warning: use_local_index and/or load_balancing needs packed_matrix_format = index
 * Changing the default setting to packed_matrix_format = index
------------------------------------------------------------


------------------------------------------------------------
          Reading geometry description geometry.in.
------------------------------------------------------------
  Input structure read successfully.
  The structure contains       42 atoms,  and a total of        162.000 electrons.

  Input geometry:
  | No unit cell requested.
  | Atomic structure:
  |       Atom                x [A]            y [A]            z [A]
  |    1: Species C            13.98472000       17.20670000       45.87413900
  |    2: Species H            13.96603900       17.51443000       44.82945100
  |    3: Species C            13.00240900       17.65252700       46.76576700
  |    4: Species C            15.00523500       16.38104900       46.35131300
  |    5: Species H            12.20623800       18.31783400       46.43559400
  |    6: Species C            13.01693900       17.21738000       48.10356600
  |    7: Species H            15.78861600       16.03074400       45.67938500
  |    8: Species C            15.02750700       15.95955200       47.69285400
  |    9: Species H            12.22183400       17.57014500       48.75446900
  |   10: Species C            14.02651500       16.37750500       48.59143200
  |   11: Species H            15.83708600       15.30796500       48.01091100
  |   12: Species C            14.03913700       15.93032900       50.00852200
  |   13: Species C            13.01250700       16.32371000       50.88233200
  |   14: Species C            15.04158800       15.09878200       50.51260200
  |   15: Species C            13.01245100       15.90350900       52.22708100
  |   16: Species H            12.19479400       16.95881900       50.55483200
  |   17: Species C            15.03474400       14.67437600       51.85004500
  |   18: Species H            15.85818000       14.75976900       49.88040900
  |   19: Species H            12.18974500       16.23625200       52.85553200
  |   20: Species C            14.02359800       15.08243700       52.74220800
  |   21: Species H            15.84157400       14.02392000       52.17772400
  |   22: Species C            14.02640200       14.60805300       54.16767300
  |   23: Species C            13.01525600       15.01611500       55.05983600
  |   24: Species C            15.03754900       13.78698200       54.68280000
  |   25: Species C            13.00841200       14.59170800       56.39727900
  |   26: Species H            12.20842600       15.66657000       54.73215700
  |   27: Species C            15.03749300       13.36678000       56.02754900
  |   28: Species H            15.86025500       13.45423800       54.05434900
  |   29: Species H            12.19182000       14.93072200       57.02947200
  |   30: Species C            14.01086300       13.76016100       56.90135900
  |   31: Species H            15.85520600       12.73167100       56.35504900
  |   32: Species C            14.02348500       13.31298600       58.31844900
  |   33: Species C            13.02249300       13.73093800       59.21702700
  |   34: Species C            15.03306100       12.47311100       58.80631500
  |   35: Species H            12.21291400       14.38252500       58.89897000
  |   36: Species C            13.04476500       13.30944100       60.55856800
  |   37: Species H            15.82816600       12.12034600       58.15541200
  |   38: Species C            15.04759100       12.03796300       60.14411400
  |   39: Species H            12.26138400       13.65974600       61.23049600
  |   40: Species C            14.06528000       12.48379000       61.03574200
  |   41: Species H            15.84376200       11.37265600       60.47428700
  |   42: Species H            14.08396100       12.17606000       62.08043000
  |

  | The smallest distance between any two atoms is         1.08594394 AA.
  |
  | The first atom of this pair is atom number                     13 .
  | The second atom of this pair is atom number                    16 .

  Number of empty states per atom not set in control.in - providing a guess from actual geometry.
  | Total number of empty states used during s.c.f. cycle:       99
  If you use a very high smearing, use empty_states (per atom!) in control.in to increase this value.

  Structure-dependent array size parameters: 
  | Maximum number of distinct radial functions  :       18
  | Maximum number of basis functions            :     1206
  | Number of Kohn-Sham states (occupied + empty):      180
------------------------------------------------------------

------------------------------------------------------------
          Preparing all fixed parts of the calculation.
------------------------------------------------------------
  Determining machine precision:
    2.225073858507201E-308
  Setting up grids for atomic and cluster calculations.

  Creating wave function, potential, and density for free atoms.

  Species: H

  List of occupied orbitals and eigenvalues:
    n    l              occ      energy [Ha]    energy [eV]
    1    0           1.0000        -0.238386        -6.4868


  Species: C

  List of occupied orbitals and eigenvalues:
    n    l              occ      energy [Ha]    energy [eV]
    1    0           2.0000       -10.049212      -273.4530
    2    0           2.0000        -0.504761       -13.7352
    2    1           2.0000        -0.193631        -5.2690

  Creating fixed part of basis set: Ionic, confined, hydrogenic.
 
  H                    hydrogenic:
 
  List of hydrogenic basis orbitals: 
    n    l      effective z      eigenvalue [eV]  inner max. [A]     outer max. [A]     outer radius [A]   
    2    0         2.100000       -14.9965           0.193243           1.317208           5.373006
    2    1         3.500000       -41.6672           0.602369           0.602369           4.056063
    1    0         0.850000        -9.8292           0.624871           0.624871           5.373006
    2    1         3.700000       -46.5653           0.573622           0.573622           3.910002
    2    0         1.200000        -4.5995           0.334980           2.228188           5.505995
    3    2         7.000000       -74.0753           0.680699           0.680699           3.769201
 
 
  C                    hydrogenic:
 
  List of hydrogenic basis orbitals: 
    n    l      effective z      eigenvalue [eV]  inner max. [A]     outer max. [A]     outer radius [A]   
    2    1         1.700000        -9.8152           1.245706           1.245706           5.401630
    3    2         6.000000       -54.4226           0.792453           0.792453           4.178599
    2    0         4.900000       -81.6681           0.082559           0.562749           3.353238
    4    3         9.800000       -81.6681           0.863254           0.863254           4.028125
    3    1         5.200000       -40.8774           0.305389           1.215618           4.898362
    3    0         4.300000       -27.9508           0.091041           1.610311           5.401630
    5    4        14.400000      -112.8510           0.917666           0.917666           3.883070
    3    2         6.200000       -58.1113           0.763917           0.763917           4.077671
 

  Adding cutoff potential to free-atom effective potential.
  Creating atomic-like basis functions for current effective potential.

  Species H                   :

  List of atomic basis orbitals and eigenvalues:
    n    l      energy [Ha]    energy [eV]    outer radius [A]
    1    0        -0.238386        -6.4868       5.373006


  Species C                   :

  List of atomic basis orbitals and eigenvalues:
    n    l      energy [Ha]    energy [eV]    outer radius [A]
    1    0       -10.049212      -273.4530       1.934409
    2    0        -0.504761       -13.7352       5.271162
    2    1        -0.193631        -5.2690       5.401630

  Assembling full basis from fixed parts.
  | Species H :   atomic orbital   1 s accepted.
  | Species H :    hydro orbital   2 s accepted.
  | Species H :    hydro orbital   1 s accepted.
  | Species H :    hydro orbital   2 s accepted.
  | Species H :    hydro orbital   2 p accepted.
  | Species H :    hydro orbital   2 p accepted.
  | Species H :    hydro orbital   3 d accepted.
  | Species C :   atomic orbital   1 s accepted.
  | Species C :    hydro orbital   2 s accepted.
  | Species C :   atomic orbital   2 s accepted.
  | Species C :    hydro orbital   3 s accepted.
  | Species C :    hydro orbital   3 p accepted.
  | Species C :   atomic orbital   2 p accepted.
  | Species C :    hydro orbital   2 p accepted.
  | Species C :    hydro orbital   3 d accepted.
  | Species C :    hydro orbital   3 d accepted.
  | Species C :    hydro orbital   4 f accepted.
  | Species C :    hydro orbital   5 g accepted.
 
  Basis size parameters after reduction:
  | Total number of radial functions:       18
  | Total number of basis functions :     1206
 
  Per-task memory consumption for arrays in subroutine allocate_ext:
  |           4.441936MB.
  Testing on-site integration grid accuracy.
  |  Species  Function  <phi|h_atom|phi> (log., in eV)  <phi|h_atom|phi> (rad., in eV)
           1        1                 -6.4870767962                 -6.4871688290
           1        2                 13.5032046589                 13.5028982997
           1        3                 32.8195184817                 32.8119941656
           1        4                 33.8513856511                 33.7670005767 ***
           1        5                 28.8544614965                 28.8544615203
           1        6                 59.6326952547                 59.6327656460
           1        7                 60.2719308513                 60.2719305949
           2        8               -273.4529726040               -273.4529710464
           2        9                -10.7721037319                -10.7721022101
           2       10                 17.6044132601                 17.6044162063
           2       11                 53.7706460658                 53.7706913770
           2       12                 15.0973290362                 15.0973256030
           2       13                  3.8545134692                  3.8545724687
           2       14                 12.1156992592                 12.1182024431
           2       15                 29.4352039302                 29.4352041816
           2       16                 54.8741144708                 54.8740268729
           2       17                 59.3556032049                 59.3556031382
           2       18                 93.4551837154                 93.4551838009
 * Note: Onsite integrals marked "***" above are less accurate than
 * onsite_accuracy_threshold =    0.03000 eV. Usually, this is harmless.
 * When in doubt, tighten the "radial" and/or "radial_multiplier" flags to check.

  Preparing densities etc. for the partition functions (integrals / Hartree potential).

  Preparations completed.
  max(cpu_time)          :      0.193 s.
  Wall clock time (cpu1) :      0.188 s.
------------------------------------------------------------

------------------------------------------------------------
          Begin self-consistency loop: Initialization.

          Date     :  20210620, Time     :  174453.678
------------------------------------------------------------

  Initializing index lists of integration centers etc. from given atomic structure:
  | Number of centers in hartree potential         :        42
  | Number of centers in hartree multipole         :        42
  | Number of centers in electron density summation:        42
  | Number of centers in basis integrals           :        42
  | Number of centers in integrals                 :        42
  | Number of centers in hamiltonian               :        42
  * Using 56 tasks for Scalapack Eigenvalue solver.
  Detailed listing of tasks and assigned k-points:
  (for non-periodic systems, the "k-point" denotes an internal label only)
   Task     0 k-point     1 on f001
   Task     1 k-point     1 on f001
   Task     2 k-point     1 on f001
   Task     3 k-point     1 on f001
   Task     4 k-point     1 on f001
   Task     5 k-point     1 on f001
   Task     6 k-point     1 on f001
   Task     7 k-point     1 on f001
   Task     8 k-point     1 on f001
   Task     9 k-point     1 on f001
   Task    10 k-point     1 on f001
   Task    11 k-point     1 on f001
   Task    12 k-point     1 on f001
   Task    13 k-point     1 on f001
   Task    14 k-point     1 on f001
   Task    15 k-point     1 on f001
   Task    16 k-point     1 on f001
   Task    17 k-point     1 on f001
   Task    18 k-point     1 on f001
   Task    19 k-point     1 on f001
   Task    20 k-point     1 on f001
   Task    21 k-point     1 on f001
   Task    22 k-point     1 on f001
   Task    23 k-point     1 on f001
   Task    24 k-point     1 on f001
   Task    25 k-point     1 on f001
   Task    26 k-point     1 on f001
   Task    27 k-point     1 on f001
   Task    28 k-point     1 on f001
   Task    29 k-point     1 on f001
   Task    30 k-point     1 on f001
   Task    31 k-point     1 on f001
   Task    32 k-point     1 on f001
   Task    33 k-point     1 on f001
   Task    34 k-point     1 on f001
   Task    35 k-point     1 on f001
   Task    36 k-point     1 on f001
   Task    37 k-point     1 on f001
   Task    38 k-point     1 on f001
   Task    39 k-point     1 on f001
   Task    40 k-point     1 on f001
   Task    41 k-point     1 on f001
   Task    42 k-point     1 on f001
   Task    43 k-point     1 on f001
   Task    44 k-point     1 on f001
   Task    45 k-point     1 on f001
   Task    46 k-point     1 on f001
   Task    47 k-point     1 on f001
   Task    48 k-point     1 on f001
   Task    49 k-point     1 on f001
   Task    50 k-point     1 on f001
   Task    51 k-point     1 on f001
   Task    52 k-point     1 on f001
   Task    53 k-point     1 on f001
   Task    54 k-point     1 on f001
   Task    55 k-point     1 on f001
  Tasks:    56 split into      8 X      7 BLACS grid
  Calculating block size based on n_basis =         1206 max_nprow =            8 max_npcol =            7
  ScaLAPACK block size set to:           16
  Allocating        0.225 MB for ovlp
  Allocating        0.225 MB for ham
  Allocating        0.225 MB for eigenvec
  Required Scalapack workspace - INTEGER:            1 REAL:             1
  Partitioning the integration grid into batches with parallel hashing+maxmin method.
  | Number of batches:     7570
  | Maximal batch size:     198
  | Minimal batch size:      26
  | Average batch size:      91.674
  | Standard deviation of batch sizes:      34.790

  Integration load balanced across     56 MPI tasks.
  Work distribution over tasks is as follows:
  Task      0 has      12441 integration points.
  Task      1 has      12397 integration points.
  Task      2 has      12386 integration points.
  Task      3 has      12401 integration points.
  Task      4 has      12399 integration points.
  Task      5 has      12422 integration points.
  Task      6 has      12376 integration points.
  Task      7 has      12520 integration points.
  Task      8 has      12398 integration points.
  Task      9 has      12323 integration points.
  Task     10 has      12455 integration points.
  Task     11 has      12337 integration points.
  Task     12 has      12381 integration points.
  Task     13 has      12354 integration points.
  Task     14 has      12463 integration points.
  Task     15 has      12419 integration points.
  Task     16 has      12316 integration points.
  Task     17 has      12452 integration points.
  Task     18 has      12350 integration points.
  Task     19 has      12468 integration points.
  Task     20 has      12309 integration points.
  Task     21 has      12463 integration points.
  Task     22 has      12410 integration points.
  Task     23 has      12323 integration points.
  Task     24 has      12439 integration points.
  Task     25 has      12411 integration points.
  Task     26 has      12392 integration points.
  Task     27 has      12243 integration points.
  Task     28 has      12507 integration points.
  Task     29 has      12401 integration points.
  Task     30 has      12369 integration points.
  Task     31 has      12478 integration points.
  Task     32 has      12403 integration points.
  Task     33 has      12466 integration points.
  Task     34 has      12228 integration points.
  Task     35 has      12441 integration points.
  Task     36 has      12414 integration points.
  Task     37 has      12349 integration points.
  Task     38 has      12472 integration points.
  Task     39 has      12344 integration points.
  Task     40 has      12455 integration points.
  Task     41 has      12136 integration points.
  Task     42 has      12440 integration points.
  Task     43 has      12407 integration points.
  Task     44 has      12359 integration points.
  Task     45 has      12438 integration points.
  Task     46 has      12337 integration points.
  Task     47 has      12418 integration points.
  Task     48 has      12351 integration points.
  Task     49 has      12448 integration points.
  Task     50 has      12420 integration points.
  Task     51 has      12314 integration points.
  Task     52 has      12462 integration points.
  Task     53 has      12383 integration points.
  Task     54 has      12351 integration points.
  Task     55 has      12333 integration points.
  Initializing partition tables, free-atom densities, potentials, etc. across the integration grid (initialize_grid_storage).
  | initialize_grid_storage: Actual outermost partition radius vs. multipole_radius_free
  | (-- VB: in principle, multipole_radius_free should be larger, hence this output)
  | Species        1: Confinement radius =              6.000000000000000 AA, multipole_radius_free =              6.071692442739658 AA.
  | Species        1: outer_partition_radius set to              6.071692442739658 AA .
  | Species        2: Confinement radius =              6.000000000000000 AA, multipole_radius_free =              6.029870734432609 AA.
  | Species        2: outer_partition_radius set to              6.029870734432609 AA .
  | The sparse table of interatomic distances needs     20.0680 kbyte instead of    14.1120 kbyte of memory.
  | Using the partition_type stratmann_smoother will reduce your memory usage.
  | Net number of integration points:   693972
  | of which are non-zero points    :   561902
  Renormalizing the initial density to the exact electron count on the 3D integration grid.
  | Initial density: Formal number of electrons (from input files) :     162.0000000000
  | Integrated number of electrons on 3D grid     :     161.9996487746
  | Charge integration error                      :      -0.0003512254
  | Normalization factor for density and gradient :       1.0000021681
  Obtaining max. number of non-zero basis functions in each batch (get_n_compute_maxes).
  | Maximal number of non-zero basis functions:      643
  Selecting the method for density update.
  Loop over occupied states selected for charge density update.
  Hamiltonian matrix size:
  | Size of matrix non-packed:                727821
  | Size of matrix packed:          539657
  Allocating        1.737 MB for KS_eigenvector
  use_local_index: Max. local matrix size =       343584
  Task:     0 matrix size:     123256
  Task:     1 matrix size:     228182
  Task:     2 matrix size:     225408
  Task:     3 matrix size:     329232
  Task:     4 matrix size:     321312
  Task:     5 matrix size:     312651
  Task:     6 matrix size:     329583
  Task:     7 matrix size:      91378
  Task:     8 matrix size:     186261
  Task:     9 matrix size:     187412
  Task:    10 matrix size:     277305
  Task:    11 matrix size:     302082
  Task:    12 matrix size:     339245
  Task:    13 matrix size:     329350
  Task:    14 matrix size:      72390
  Task:    15 matrix size:     121759
  Task:    16 matrix size:     130804
  Task:    17 matrix size:     296311
  Task:    18 matrix size:     333081
  Task:    19 matrix size:     291701
  Task:    20 matrix size:     258026
  Task:    21 matrix size:     109278
  Task:    22 matrix size:     101025
  Task:    23 matrix size:      88831
  Task:    24 matrix size:     176300
  Task:    25 matrix size:     343584
  Task:    26 matrix size:     330535
  Task:    27 matrix size:     314189
  Task:    28 matrix size:     291597
  Task:    29 matrix size:     338789
  Task:    30 matrix size:     341735
  Task:    31 matrix size:     130804
  Task:    32 matrix size:      74305
  Task:    33 matrix size:     130300
  Task:    34 matrix size:      70500
  Task:    35 matrix size:     254606
  Task:    36 matrix size:     315792
  Task:    37 matrix size:     287935
  Task:    38 matrix size:     176255
  Task:    39 matrix size:     144848
  Task:    40 matrix size:      83436
  Task:    41 matrix size:     101475
  Task:    42 matrix size:     301327
  Task:    43 matrix size:     288476
  Task:    44 matrix size:     256809
  Task:    45 matrix size:     228194
  Task:    46 matrix size:     232923
  Task:    47 matrix size:     135439
  Task:    48 matrix size:     137391
  Task:    49 matrix size:     295822
  Task:    50 matrix size:     278075
  Task:    51 matrix size:     290782
  Task:    52 matrix size:     281192
  Task:    53 matrix size:     281827
  Task:    54 matrix size:     195236
  Task:    55 matrix size:     123256
  Integrating Hamiltonian matrix: batch-based integration.
  Time summed over all CPUs for integration: real work       87.573 s, elapsed      130.054 s
  Time get_set_sparse_local_matrix_scalapack:     0.009997 s
  Start compute_balanced_batch_distribution
  Done load balancing, time needed:      0.007 s
  Integrating overlap matrix with loadbalancing
  Time summed over all CPUs for integration: real work       25.746 s, elapsed       29.105 s
  Time get_set_full_local_matrix_scalapack:     0.009186 s

  Updating Kohn-Sham eigenvalues and eigenvectors using ELSI and the ELPA eigensolver.
  Overlap matrix is not singular
  | Lowest and highest eigenvalues :  0.99E+01,  0.90E-04
  Finished singularity check of overlap matrix
  | Time :     0.063 s
  Finished Cholesky decomposition
  | Time :     0.015 s
  Finished transformation to standard eigenproblem
  | Time :     0.010 s
  Starting ELPA eigensolver
  Finished solving standard eigenproblem
  | Time :     0.065 s
  Finished back-transformation of eigenvectors
  | Time :     0.003 s

  Obtaining occupation numbers and chemical potential using ELSI.
  | Chemical potential (Fermi level):    -8.56869434 eV
  Writing Kohn-Sham eigenvalues.

  State    Occupation    Eigenvalue [Ha]    Eigenvalue [eV]
      1       2.00000         -10.168526         -276.69966
      2       2.00000         -10.168526         -276.69966
      3       2.00000         -10.168204         -276.69090
      4       2.00000         -10.168204         -276.69090
      5       2.00000         -10.167500         -276.67174
      6       2.00000         -10.167500         -276.67174
      7       2.00000         -10.167265         -276.66535
      8       2.00000         -10.167265         -276.66535
      9       2.00000         -10.167078         -276.66026
     10       2.00000         -10.167078         -276.66026
     11       2.00000         -10.166814         -276.65307
     12       2.00000         -10.166814         -276.65307
     13       2.00000         -10.166714         -276.65035
     14       2.00000         -10.166714         -276.65035
     15       2.00000         -10.166666         -276.64905
     16       2.00000         -10.166666         -276.64905
     17       2.00000         -10.166253         -276.63783
     18       2.00000         -10.166253         -276.63783
     19       2.00000         -10.162742         -276.54227
     20       2.00000         -10.162742         -276.54227
     21       2.00000         -10.161495         -276.50836
     22       2.00000         -10.161495         -276.50836
     23       2.00000         -10.159746         -276.46075
     24       2.00000         -10.159593         -276.45659
     25       2.00000          -0.998813          -27.17907
     26       2.00000          -0.992977          -27.02029
     27       2.00000          -0.981926          -26.71956
     28       2.00000          -0.973103          -26.47947
     29       2.00000          -0.921050          -25.06305
     30       2.00000          -0.899619          -24.47989
     31       2.00000          -0.883466          -24.04034
     32       2.00000          -0.880051          -23.94741
     33       2.00000          -0.874679          -23.80122
     34       2.00000          -0.871442          -23.71316
     35       2.00000          -0.870431          -23.68564
     36       2.00000          -0.845541          -23.00835
     37       2.00000          -0.776803          -21.13788
     38       2.00000          -0.766757          -20.86451
     39       2.00000          -0.753539          -20.50484
     40       2.00000          -0.751397          -20.44656
     41       2.00000          -0.733597          -19.96218
     42       2.00000          -0.726653          -19.77324
     43       2.00000          -0.716803          -19.50519
     44       2.00000          -0.713513          -19.41569
     45       2.00000          -0.674415          -18.35178
     46       2.00000          -0.663357          -18.05086
     47       2.00000          -0.642031          -17.47055
     48       2.00000          -0.640663          -17.43333
     49       2.00000          -0.624349          -16.98940
     50       2.00000          -0.611359          -16.63593
     51       2.00000          -0.607403          -16.52828
     52       2.00000          -0.604925          -16.46084
     53       2.00000          -0.591737          -16.10198
     54       2.00000          -0.586947          -15.97163
     55       2.00000          -0.577265          -15.70818
     56       2.00000          -0.572690          -15.58370
     57       2.00000          -0.571146          -15.54169
     58       2.00000          -0.565245          -15.38110
     59       2.00000          -0.563869          -15.34366
     60       2.00000          -0.555408          -15.11341
     61       2.00000          -0.547883          -14.90866
     62       2.00000          -0.538413          -14.65096
     63       2.00000          -0.518321          -14.10422
     64       2.00000          -0.513753          -13.97994
     65       2.00000          -0.511492          -13.91840
     66       2.00000          -0.510583          -13.89368
     67       2.00000          -0.501003          -13.63299
     68       2.00000          -0.499994          -13.60553
     69       2.00000          -0.498926          -13.57648
     70       2.00000          -0.495823          -13.49204
     71       2.00000          -0.487148          -13.25597
     72       2.00000          -0.481771          -13.10964
     73       2.00000          -0.477677          -12.99825
     74       2.00000          -0.440817          -11.99524
     75       2.00000          -0.414644          -11.28303
     76       2.00000          -0.400532          -10.89902
     77       2.00000          -0.398450          -10.84237
     78       2.00000          -0.395541          -10.76322
     79       2.00000          -0.393592          -10.71019
     80       2.00000          -0.384065          -10.45093
     81       2.00000          -0.358156           -9.74593
     82       0.00000          -0.251181           -6.83499
     83       0.00000          -0.222904           -6.06553
     84       0.00000          -0.220854           -6.00975
     85       0.00000          -0.214084           -5.82551
     86       0.00000          -0.205093           -5.58088
     87       0.00000          -0.198505           -5.40158
     88       0.00000          -0.186271           -5.06870
     89       0.00000          -0.151410           -4.12007
     90       0.00000          -0.095679           -2.60355
     91       0.00000          -0.076201           -2.07353
     92       0.00000          -0.073046           -1.98768
     93       0.00000          -0.068349           -1.85986
     94       0.00000          -0.064002           -1.74158
     95       0.00000          -0.062958           -1.71318
     96       0.00000          -0.050242           -1.36714
     97       0.00000          -0.049448           -1.34555
     98       0.00000          -0.039597           -1.07749
     99       0.00000          -0.032485           -0.88396
    100       0.00000          -0.029925           -0.81430
    101       0.00000          -0.021229           -0.57768
    102       0.00000          -0.020045           -0.54546
    103       0.00000          -0.019071           -0.51896
    104       0.00000          -0.016304           -0.44364
    105       0.00000          -0.006991           -0.19024
    106       0.00000          -0.004013           -0.10920
    107       0.00000           0.002981            0.08112
    108       0.00000           0.005586            0.15199
    109       0.00000           0.012755            0.34709
    110       0.00000           0.014084            0.38324
    111       0.00000           0.021828            0.59397
    112       0.00000           0.023588            0.64185
    113       0.00000           0.024899            0.67754
    114       0.00000           0.027385            0.74517
    115       0.00000           0.028823            0.78432
    116       0.00000           0.035400            0.96328
    117       0.00000           0.040885            1.11255
    118       0.00000           0.042521            1.15707
    119       0.00000           0.044110            1.20029
    120       0.00000           0.051220            1.39376
    121       0.00000           0.053584            1.45810
    122       0.00000           0.054827            1.49192
    123       0.00000           0.063485            1.72752
    124       0.00000           0.064908            1.76624
    125       0.00000           0.065654            1.78654
    126       0.00000           0.068508            1.86421
    127       0.00000           0.074633            2.03086
    128       0.00000           0.078602            2.13888
    129       0.00000           0.085325            2.32182
    130       0.00000           0.085724            2.33267
    131       0.00000           0.087377            2.37766
    132       0.00000           0.087838            2.39020
    133       0.00000           0.090472            2.46187
    134       0.00000           0.091342            2.48555
    135       0.00000           0.105223            2.86325
    136       0.00000           0.107352            2.92119
    137       0.00000           0.108266            2.94607
    138       0.00000           0.111543            3.03524
    139       0.00000           0.112702            3.06677
    140       0.00000           0.114262            3.10923
    141       0.00000           0.116486            3.16976
    142       0.00000           0.119295            3.24617
    143       0.00000           0.125330            3.41040
    144       0.00000           0.127105            3.45871
    145       0.00000           0.127208            3.46150
    146       0.00000           0.137848            3.75103
    147       0.00000           0.138821            3.77750
    148       0.00000           0.140818            3.83185
    149       0.00000           0.143880            3.91517
    150       0.00000           0.151345            4.11830
    151       0.00000           0.151710            4.12824
    152       0.00000           0.155774            4.23883
    153       0.00000           0.157264            4.27938
    154       0.00000           0.162747            4.42858
    155       0.00000           0.168154            4.57570
    156       0.00000           0.169974            4.62523
    157       0.00000           0.170764            4.64672
    158       0.00000           0.171749            4.67353
    159       0.00000           0.174104            4.73762
    160       0.00000           0.185806            5.05605
    161       0.00000           0.186893            5.08562
    162       0.00000           0.188860            5.13913
    163       0.00000           0.190656            5.18801
    164       0.00000           0.194909            5.30373
    165       0.00000           0.196811            5.35551
    166       0.00000           0.199449            5.42729
    167       0.00000           0.208584            5.67585
    168       0.00000           0.213625            5.81302
    169       0.00000           0.215217            5.85634
    170       0.00000           0.218528            5.94644
    171       0.00000           0.218896            5.95647
    172       0.00000           0.219644            5.97681
    173       0.00000           0.221058            6.01530
    174       0.00000           0.223917            6.09309
    175       0.00000           0.225648            6.14019
    176       0.00000           0.228293            6.21217
    177       0.00000           0.235351            6.40422
    178       0.00000           0.238349            6.48580
    179       0.00000           0.238909            6.50104
    180       0.00000           0.255151            6.94301

  Highest occupied state (VBM) at     -9.74592789 eV
  | Occupation number:      2.00000000

  Lowest unoccupied state (CBM) at    -6.83499199 eV
  | Occupation number:      0.00000000

  Overall HOMO-LUMO gap:      2.91093590 eV.
  Calculating total energy contributions from superposition of free atom densities.

  Total energy components:
  | Sum of eigenvalues            :        -560.66280474 Ha      -15256.41115466 eV
  | XC energy correction          :        -133.22474841 Ha       -3625.22985384 eV
  | XC potential correction       :         171.11830339 Ha        4656.36594851 eV
  | Free-atom electrostatic energy:        -403.39283927 Ha      -10976.87765384 eV
  | Hartree energy correction     :           0.00000000 Ha           0.00000000 eV
  | Entropy correction            :           0.00000000 Ha           0.00000000 eV
  | ---------------------------
  | Total energy                  :        -926.16208903 Ha      -25202.15271383 eV
  | Total energy, T -> 0          :        -926.16208903 Ha      -25202.15271383 eV  <-- do not rely on this value for anything but (periodic) metals
  | Electronic free energy        :        -926.16208903 Ha      -25202.15271383 eV

  Derived energy quantities:
  | Kinetic energy                :         916.28742498 Ha       24933.44943356 eV
  | Electrostatic energy          :       -1709.22476560 Ha      -46510.37229355 eV
  | Energy correction for multipole
  | error in Hartree potential    :           0.00000000 Ha           0.00000000 eV
  | Sum of eigenvalues per atom                           :        -363.24788463 eV
  | Total energy (T->0) per atom                          :        -600.05125509 eV  <-- do not rely on this value for anything but (periodic) metals
  | Electronic free energy per atom                       :        -600.05125509 eV
  Initialize hartree_potential_storage
  Max. number of atoms included in rho_multipole:           42

  End scf initialization - timings             :  max(cpu_time)    wall_clock(cpu1)
  | Time for scf. initialization               :        4.028 s           4.085 s
  | Boundary condition initialization          :        0.000 s           0.003 s
  | Integration                                :        2.878 s           2.884 s
  | Solution of K.-S. eqns.                    :        0.167 s           0.184 s
  | Grid partitioning                          :        0.531 s           0.535 s
  | Preloading free-atom quantities on grid    :        0.013 s           0.016 s
  | Free-atom superposition energy             :        0.042 s           0.043 s
  | Total energy evaluation                    :        0.001 s           0.003 s

  Partial memory accounting:
  | Current value for overall tracked memory usage on task 0  :           2.906 MB
  | Peak value for overall tracked memory usage on task 0     :          16.382 MB after allocating zora_vector2
  | Largest tracked array allocation on task 0 so far         :           3.308 MB  when allocating hamiltonian_shell
  Note:  These values currently only include a subset of arrays which are explicitly tracked.
  The "true" memory usage will be greater.
------------------------------------------------------------

------------------------------------------------------------
          Begin self-consistency iteration #    1

  Date     :  20210620, Time     :  174457.766
------------------------------------------------------------
  Evaluating new KS density.
  Integration grid: deviation in total charge (<rho> - N_e) =   2.842171E-14
  Pulay mixing of updated and previous charge densities.

  Evaluating partitioned Hartree potential by multipole expansion.
  | Analytical far-field extrapolation by fixed multipoles:
  | Hartree multipole sum: apparent total charge =  -0.358640E-03
  Summing up the Hartree potential with load balancing.
  Time summed over all CPUs for potential: real work       18.620 s, elapsed       27.220 s
  | RMS charge density error from multipole expansion :   0.116536E-01

  Start compute_balanced_batch_distribution
  Done load balancing, time needed:      0.006 s
  Integrating Hamiltonian matrix: batch-based integration with load balancing
  Time summed over all CPUs for integration: real work       93.968 s, elapsed      103.386 s
  Time get_set_full_local_matrix_scalapack:     0.008598 s
  Start compute_balanced_batch_distribution
  Done load balancing, time needed:      0.006 s

  Updating Kohn-Sham eigenvalues and eigenvectors using ELSI and the ELPA eigensolver.
  Finished transformation to standard eigenproblem
  | Time :     0.011 s
  Starting ELPA eigensolver
  Finished solving standard eigenproblem
  | Time :     0.063 s
  Finished back-transformation of eigenvectors
  | Time :     0.003 s

  Obtaining occupation numbers and chemical potential using ELSI.
  | Chemical potential (Fermi level):    -4.32478707 eV
  Writing Kohn-Sham eigenvalues.

  State    Occupation    Eigenvalue [Ha]    Eigenvalue [eV]
      1       2.00000          -9.980568         -271.58509
      2       2.00000          -9.980412         -271.58083
      3       2.00000          -9.974383         -271.41678
      4       2.00000          -9.974383         -271.41678
      5       2.00000          -9.974188         -271.41148
      6       2.00000          -9.974188         -271.41148
      7       2.00000          -9.953255         -270.84184
      8       2.00000          -9.953255         -270.84184
      9       2.00000          -9.953069         -270.83679
     10       2.00000          -9.953069         -270.83679
     11       2.00000          -9.952757         -270.82830
     12       2.00000          -9.952757         -270.82830
     13       2.00000          -9.950670         -270.77151
     14       2.00000          -9.950670         -270.77151
     15       2.00000          -9.948548         -270.71378
     16       2.00000          -9.948548         -270.71378
     17       2.00000          -9.946938         -270.66994
     18       2.00000          -9.946937         -270.66994
     19       2.00000          -9.945730         -270.63709
     20       2.00000          -9.945730         -270.63709
     21       2.00000          -9.944357         -270.59972
     22       2.00000          -9.944357         -270.59972
     23       2.00000          -9.942359         -270.54537
     24       2.00000          -9.942359         -270.54537
     25       2.00000          -0.852283          -23.19179
     26       2.00000          -0.843094          -22.94176
     27       2.00000          -0.828918          -22.55599
     28       2.00000          -0.817867          -22.25529
     29       2.00000          -0.778529          -21.18486
     30       2.00000          -0.752928          -20.48822
     31       2.00000          -0.742546          -20.20570
     32       2.00000          -0.736310          -20.03601
     33       2.00000          -0.728189          -19.81503
     34       2.00000          -0.725024          -19.72891
     35       2.00000          -0.722247          -19.65335
     36       2.00000          -0.695146          -18.91590
     37       2.00000          -0.636533          -17.32094
     38       2.00000          -0.635216          -17.28511
     39       2.00000          -0.618152          -16.82077
     40       2.00000          -0.610629          -16.61606
     41       2.00000          -0.596417          -16.22934
     42       2.00000          -0.587480          -15.98615
     43       2.00000          -0.580324          -15.79141
     44       2.00000          -0.575909          -15.67128
     45       2.00000          -0.549627          -14.95612
     46       2.00000          -0.534746          -14.55118
     47       2.00000          -0.510654          -13.89561
     48       2.00000          -0.498657          -13.56914
     49       2.00000          -0.489916          -13.33130
     50       2.00000          -0.489560          -13.32161
     51       2.00000          -0.469908          -12.78683
     52       2.00000          -0.465310          -12.66172
     53       2.00000          -0.461128          -12.54793
     54       2.00000          -0.450042          -12.24628
     55       2.00000          -0.448908          -12.21542
     56       2.00000          -0.445821          -12.13139
     57       2.00000          -0.439796          -11.96745
     58       2.00000          -0.436093          -11.86670
     59       2.00000          -0.434303          -11.81799
     60       2.00000          -0.424512          -11.55157
     61       2.00000          -0.415072          -11.29468
     62       2.00000          -0.399480          -10.87039
     63       2.00000          -0.398054          -10.83159
     64       2.00000          -0.389226          -10.59138
     65       2.00000          -0.388911          -10.58281
     66       2.00000          -0.375154          -10.20845
     67       2.00000          -0.372858          -10.14599
     68       2.00000          -0.371616          -10.11219
     69       2.00000          -0.361123           -9.82666
     70       2.00000          -0.358335           -9.75080
     71       2.00000          -0.356450           -9.69950
     72       2.00000          -0.356210           -9.69296
     73       2.00000          -0.347402           -9.45328
     74       2.00000          -0.320287           -8.71545
     75       2.00000          -0.291099           -7.92121
     76       2.00000          -0.278680           -7.58326
     77       2.00000          -0.274395           -7.46667
     78       2.00000          -0.269247           -7.32659
     79       2.00000          -0.267919           -7.29044
     80       2.00000          -0.258494           -7.03398
     81       2.00000          -0.232181           -6.31798
     82       0.00000          -0.131898           -3.58912
     83       0.00000          -0.105400           -2.86809
     84       0.00000          -0.101356           -2.75804
     85       0.00000          -0.094319           -2.56655
     86       0.00000          -0.081242           -2.21070
     87       0.00000          -0.073087           -1.98880
     88       0.00000          -0.064648           -1.75915
     89       0.00000          -0.033655           -0.91581
     90       0.00000          -0.029672           -0.80742
     91       0.00000          -0.028136           -0.76563
     92       0.00000          -0.020733           -0.56417
     93       0.00000          -0.019265           -0.52424
     94       0.00000          -0.010311           -0.28057
     95       0.00000          -0.006492           -0.17667
     96       0.00000           0.003386            0.09213
     97       0.00000           0.007730            0.21034
     98       0.00000           0.017886            0.48671
     99       0.00000           0.021793            0.59302
    100       0.00000           0.027737            0.75475
    101       0.00000           0.028354            0.77156
    102       0.00000           0.040742            1.10865
    103       0.00000           0.051826            1.41025
    104       0.00000           0.053815            1.46438
    105       0.00000           0.058730            1.59813
    106       0.00000           0.066687            1.81464
    107       0.00000           0.068036            1.85136
    108       0.00000           0.071277            1.93955
    109       0.00000           0.081967            2.23044
    110       0.00000           0.087629            2.38451
    111       0.00000           0.089991            2.44878
    112       0.00000           0.093686            2.54933
    113       0.00000           0.095961            2.61124
    114       0.00000           0.099893            2.71821
    115       0.00000           0.100768            2.74204
    116       0.00000           0.105973            2.88368
    117       0.00000           0.107661            2.92961
    118       0.00000           0.111157            3.02474
    119       0.00000           0.113396            3.08565
    120       0.00000           0.114902            3.12665
    121       0.00000           0.119231            3.24445
    122       0.00000           0.121972            3.31902
    123       0.00000           0.132511            3.60581
    124       0.00000           0.133445            3.63121
    125       0.00000           0.134557            3.66149
    126       0.00000           0.136094            3.70331
    127       0.00000           0.138948            3.78096
    128       0.00000           0.140147            3.81359
    129       0.00000           0.142549            3.87896
    130       0.00000           0.145418            3.95703
    131       0.00000           0.153333            4.17240
    132       0.00000           0.155164            4.22221
    133       0.00000           0.158709            4.31870
    134       0.00000           0.159124            4.32997
    135       0.00000           0.162826            4.43073
    136       0.00000           0.168610            4.58812
    137       0.00000           0.172595            4.69655
    138       0.00000           0.180278            4.90561
    139       0.00000           0.182721            4.97209
    140       0.00000           0.183050            4.98104
    141       0.00000           0.187613            5.10521
    142       0.00000           0.189409            5.15407
    143       0.00000           0.190003            5.17025
    144       0.00000           0.190842            5.19309
    145       0.00000           0.195517            5.32029
    146       0.00000           0.198400            5.39874
    147       0.00000           0.199830            5.43765
    148       0.00000           0.205032            5.57921
    149       0.00000           0.216751            5.89808
    150       0.00000           0.216846            5.90067
    151       0.00000           0.220455            5.99887
    152       0.00000           0.226127            6.15323
    153       0.00000           0.228176            6.20898
    154       0.00000           0.230116            6.26177
    155       0.00000           0.231495            6.29931
    156       0.00000           0.234540            6.38215
    157       0.00000           0.243917            6.63731
    158       0.00000           0.244128            6.64306
    159       0.00000           0.246326            6.70288
    160       0.00000           0.247113            6.72430
    161       0.00000           0.253503            6.89818
    162       0.00000           0.254903            6.93627
    163       0.00000           0.262501            7.14301
    164       0.00000           0.262685            7.14803
    165       0.00000           0.269536            7.33445
    166       0.00000           0.272038            7.40254
    167       0.00000           0.272207            7.40713
    168       0.00000           0.272441            7.41350
    169       0.00000           0.276145            7.51430
    170       0.00000           0.280607            7.63569
    171       0.00000           0.288149            7.84094
    172       0.00000           0.294548            8.01506
    173       0.00000           0.298179            8.11385
    174       0.00000           0.303322            8.25381
    175       0.00000           0.306322            8.33545
    176       0.00000           0.308763            8.40186
    177       0.00000           0.310973            8.46200
    178       0.00000           0.320894            8.73196
    179       0.00000           0.323855            8.81255
    180       0.00000           0.324098            8.81916

  Highest occupied state (VBM) at     -6.31797887 eV
  | Occupation number:      2.00000000

  Lowest unoccupied state (CBM) at    -3.58911882 eV
  | Occupation number:      0.00000000

  Overall HOMO-LUMO gap:      2.72886005 eV.

  Total energy components:
  | Sum of eigenvalues            :        -535.25681101 Ha      -14565.07889068 eV
  | XC energy correction          :        -135.03256534 Ha       -3674.42305549 eV
  | XC potential correction       :         173.46375312 Ha        4720.18888286 eV
  | Free-atom electrostatic energy:        -403.39283927 Ha      -10976.87765384 eV
  | Hartree energy correction     :         -25.08845451 Ha        -682.69158206 eV
  | Entropy correction            :           0.00000000 Ha           0.00000000 eV
  | ---------------------------
  | Total energy                  :        -925.30691701 Ha      -25178.88229921 eV
  | Total energy, T -> 0          :        -925.30691701 Ha      -25178.88229921 eV  <-- do not rely on this value for anything but (periodic) metals
  | Electronic free energy        :        -925.30691701 Ha      -25178.88229921 eV

  Derived energy quantities:
  | Kinetic energy                :         924.32753078 Ha       25152.23184412 eV
  | Electrostatic energy          :       -1714.60188245 Ha      -46656.69108784 eV
  | Energy correction for multipole
  | error in Hartree potential    :          -0.05601047 Ha          -1.52412254 eV
  | Sum of eigenvalues per atom                           :        -346.78759264 eV
  | Total energy (T->0) per atom                          :        -599.49719760 eV  <-- do not rely on this value for anything but (periodic) metals
  | Electronic free energy per atom                       :        -599.49719760 eV

  Self-consistency convergence accuracy:
  | Change of charge density      :  0.9905E+00
  | Change of sum of eigenvalues  :  0.6913E+03 eV
  | Change of total energy        :  0.2327E+02 eV

  End self-consistency iteration #     1       :  max(cpu_time)    wall_clock(cpu1)
  | Time for this iteration                    :        3.183 s           3.189 s
  | Charge density update                      :        0.705 s           0.706 s
  | Density mixing                             :        0.002 s           0.004 s
  | Hartree multipole update                   :        0.009 s           0.009 s
  | Hartree multipole summation                :        0.495 s           0.498 s
  | Integration                                :        1.850 s           1.850 s
  | Solution of K.-S. eqns.                    :        0.108 s           0.108 s
  | Total energy evaluation                    :        0.000 s           0.000 s

  Partial memory accounting:
  | Current value for overall tracked memory usage on task 0  :           2.906 MB
  | Peak value for overall tracked memory usage on task 0     :          16.744 MB after allocating zora_vector2
  | Largest tracked array allocation on task 0 so far         :           3.308 MB  when allocating hamiltonian_shell
  Note:  These values currently only include a subset of arrays which are explicitly tracked.
  The "true" memory usage will be greater.
------------------------------------------------------------

------------------------------------------------------------
          Begin self-consistency iteration #    2

  Date     :  20210620, Time     :  174500.956
------------------------------------------------------------
  Evaluating new KS density.
  Integration grid: deviation in total charge (<rho> - N_e) =   1.421085E-13
  Pulay mixing of updated and previous charge densities.

  Evaluating partitioned Hartree potential by multipole expansion.
  | Analytical far-field extrapolation by fixed multipoles:
  | Hartree multipole sum: apparent total charge =  -0.357799E-03
  Summing up the Hartree potential with load balancing.
  Time summed over all CPUs for potential: real work       18.956 s, elapsed       21.534 s
  | RMS charge density error from multipole expansion :   0.203493E-01

  Integrating Hamiltonian matrix: batch-based integration with load balancing
  Time summed over all CPUs for integration: real work       94.590 s, elapsed       96.763 s
  Time get_set_full_local_matrix_scalapack:     0.011231 s

  Updating Kohn-Sham eigenvalues and eigenvectors using ELSI and the ELPA eigensolver.
  Finished transformation to standard eigenproblem
  | Time :     0.009 s
  Starting ELPA eigensolver
  Finished solving standard eigenproblem
  | Time :     0.062 s
  Finished back-transformation of eigenvectors
  | Time :     0.003 s

  Obtaining occupation numbers and chemical potential using ELSI.
  | Chemical potential (Fermi level):    -3.34522023 eV
  Highest occupied state (VBM) at     -5.26512648 eV
  | Occupation number:      2.00000000

  Lowest unoccupied state (CBM) at    -2.53889968 eV
  | Occupation number:      0.00000000

  Overall HOMO-LUMO gap:      2.72622680 eV.

  Checking to see if s.c.f. parameters should be adjusted.

  Total energy components:
  | Sum of eigenvalues            :        -527.26464670 Ha      -14347.60103471 eV
  | XC energy correction          :        -135.79305963 Ha       -3695.11715791 eV
  | XC potential correction       :         174.43993800 Ha        4746.75222495 eV
  | Free-atom electrostatic energy:        -403.39283927 Ha      -10976.87765384 eV
  | Hartree energy correction     :         -33.18864282 Ha        -903.10892072 eV
  | Entropy correction            :           0.00000000 Ha           0.00000000 eV
  | ---------------------------
  | Total energy                  :        -925.19925042 Ha      -25175.95254223 eV
  | Total energy, T -> 0          :        -925.19925042 Ha      -25175.95254223 eV  <-- do not rely on this value for anything but (periodic) metals
  | Electronic free energy        :        -925.19925042 Ha      -25175.95254223 eV

  Derived energy quantities:
  | Kinetic energy                :         924.24361763 Ha       25149.94845110 eV
  | Electrostatic energy          :       -1713.64980843 Ha      -46630.78383541 eV
  | Energy correction for multipole
  | error in Hartree potential    :          -0.08938252 Ha          -2.43222213 eV
[...]
     10       2.00000          -9.900337         -269.40187
     11       2.00000          -9.900168         -269.39729
     12       2.00000          -9.900168         -269.39729
     13       2.00000          -9.899658         -269.38341
     14       2.00000          -9.899658         -269.38341
     15       2.00000          -9.899317         -269.37413
     16       2.00000          -9.899317         -269.37413
     17       2.00000          -9.899267         -269.37275
     18       2.00000          -9.899266         -269.37275
     19       2.00000          -9.898875         -269.36210
     20       2.00000          -9.898875         -269.36210
     21       2.00000          -9.898217         -269.34418
     22       2.00000          -9.898217         -269.34418
     23       2.00000          -9.897708         -269.33035
     24       2.00000          -9.897708         -269.33035
     25       2.00000          -0.800847          -21.79215
     26       2.00000          -0.793362          -21.58848
     27       2.00000          -0.780166          -21.22941
     28       2.00000          -0.768904          -20.92294
     29       2.00000          -0.726062          -19.75714
     30       2.00000          -0.701036          -19.07617
     31       2.00000          -0.686941          -18.69263
     32       2.00000          -0.682089          -18.56059
     33       2.00000          -0.675200          -18.37311
     34       2.00000          -0.671002          -18.25888
     35       2.00000          -0.669771          -18.22538
     36       2.00000          -0.641430          -17.45420
     37       2.00000          -0.580625          -15.79962
     38       2.00000          -0.576957          -15.69980
     39       2.00000          -0.560886          -15.26249
     40       2.00000          -0.553954          -15.07385
     41       2.00000          -0.538862          -14.66319
     42       2.00000          -0.529772          -14.41582
     43       2.00000          -0.521095          -14.17971
     44       2.00000          -0.516845          -14.06406
     45       2.00000          -0.492987          -13.41486
     46       2.00000          -0.479494          -13.04769
     47       2.00000          -0.454278          -12.36154
     48       2.00000          -0.436580          -11.87995
     49       2.00000          -0.431705          -11.74729
     50       2.00000          -0.428952          -11.67237
     51       2.00000          -0.412281          -11.21873
     52       2.00000          -0.407208          -11.08068
     53       2.00000          -0.398997          -10.85726
     54       2.00000          -0.391934          -10.66506
     55       2.00000          -0.388470          -10.57081
     56       2.00000          -0.385426          -10.48798
     57       2.00000          -0.382077          -10.39685
     58       2.00000          -0.379884          -10.33718
     59       2.00000          -0.376783          -10.25278
     60       2.00000          -0.367213           -9.99237
     61       2.00000          -0.360441           -9.80809
     62       2.00000          -0.355707           -9.67929
     63       2.00000          -0.351313           -9.55971
     64       2.00000          -0.339638           -9.24203
     65       2.00000          -0.335456           -9.12821
     66       2.00000          -0.327956           -8.92415
     67       2.00000          -0.319242           -8.68702
     68       2.00000          -0.315256           -8.57856
     69       2.00000          -0.311376           -8.47298
     70       2.00000          -0.302236           -8.22425
     71       2.00000          -0.298771           -8.12997
     72       2.00000          -0.295442           -8.03937
     73       2.00000          -0.284511           -7.74195
     74       2.00000          -0.281153           -7.65057
     75       2.00000          -0.252211           -6.86301
     76       2.00000          -0.238624           -6.49330
     77       2.00000          -0.235283           -6.40237
     78       2.00000          -0.231100           -6.28856
     79       2.00000          -0.228579           -6.21996
     80       2.00000          -0.219325           -5.96813
     81       2.00000          -0.191280           -5.20500
     82       0.00000          -0.090842           -2.47194
     83       0.00000          -0.065476           -1.78169
     84       0.00000          -0.061050           -1.66126
     85       0.00000          -0.054940           -1.49500
     86       0.00000          -0.041169           -1.12025
     87       0.00000          -0.030757           -0.83695
     88       0.00000          -0.023906           -0.65052
     89       0.00000          -0.010421           -0.28357
     90       0.00000          -0.005642           -0.15352
     91       0.00000           0.002518            0.06852
     92       0.00000           0.002821            0.07676
     93       0.00000           0.011506            0.31310
     94       0.00000           0.011843            0.32227
     95       0.00000           0.015209            0.41385
     96       0.00000           0.024175            0.65784
     97       0.00000           0.029994            0.81617
     98       0.00000           0.038486            1.04725
     99       0.00000           0.048913            1.33098
    100       0.00000           0.052837            1.43777
    101       0.00000           0.062609            1.70367
    102       0.00000           0.063251            1.72113
    103       0.00000           0.078791            2.14401
    104       0.00000           0.083425            2.27010
    105       0.00000           0.087564            2.38275
    106       0.00000           0.089634            2.43907
    107       0.00000           0.091844            2.49921
    108       0.00000           0.095753            2.60557
    109       0.00000           0.105616            2.87395
    110       0.00000           0.116212            3.16228
    111       0.00000           0.117397            3.19453
    112       0.00000           0.119261            3.24525
    113       0.00000           0.127307            3.46419
    114       0.00000           0.127502            3.46951
    115       0.00000           0.128604            3.49950
    116       0.00000           0.133080            3.62130
    117       0.00000           0.138229            3.76140
    118       0.00000           0.140956            3.83561
    119       0.00000           0.143349            3.90071
    120       0.00000           0.147570            4.01558
    121       0.00000           0.152208            4.14178
    122       0.00000           0.153306            4.17168
    123       0.00000           0.153736            4.18338
    124       0.00000           0.156638            4.26234
    125       0.00000           0.166571            4.53261
    126       0.00000           0.167608            4.56086
    127       0.00000           0.168848            4.59460
    128       0.00000           0.172500            4.69396
    129       0.00000           0.173523            4.72180
    130       0.00000           0.179402            4.88178
    131       0.00000           0.181348            4.93472
    132       0.00000           0.182997            4.97961
    133       0.00000           0.192139            5.22835
    134       0.00000           0.195152            5.31036
    135       0.00000           0.196238            5.33992
    136       0.00000           0.197791            5.38216
    137       0.00000           0.198754            5.40837
    138       0.00000           0.203080            5.52608
    139       0.00000           0.206506            5.61932
    140       0.00000           0.212229            5.77504
    141       0.00000           0.212948            5.79461
    142       0.00000           0.217559            5.92008
    143       0.00000           0.223446            6.08026
    144       0.00000           0.224327            6.10425
    145       0.00000           0.228873            6.22795
    146       0.00000           0.235877            6.41855
    147       0.00000           0.237985            6.47591
    148       0.00000           0.240476            6.54367
    149       0.00000           0.242816            6.60736
    150       0.00000           0.245605            6.68326
    151       0.00000           0.250784            6.82417
    152       0.00000           0.256508            6.97994
    153       0.00000           0.256559            6.98131
    154       0.00000           0.264198            7.18920
    155       0.00000           0.267544            7.28025
    156       0.00000           0.269022            7.32046
    157       0.00000           0.269651            7.33758
    158       0.00000           0.270285            7.35483
    159       0.00000           0.273085            7.43101
    160       0.00000           0.276548            7.52524
    161       0.00000           0.282876            7.69744
    162       0.00000           0.285190            7.76040
    163       0.00000           0.293540            7.98764
    164       0.00000           0.294962            8.02633
    165       0.00000           0.296143            8.05847
    166       0.00000           0.301232            8.19695
    167       0.00000           0.303895            8.26939
    168       0.00000           0.308763            8.40187
    169       0.00000           0.309813            8.43044
    170       0.00000           0.312029            8.49074
    171       0.00000           0.319824            8.70284
    172       0.00000           0.324967            8.84279
    173       0.00000           0.328393            8.93604
    174       0.00000           0.329195            8.95784
    175       0.00000           0.339411            9.23585
    176       0.00000           0.345138            9.39167
    177       0.00000           0.346264            9.42232
    178       0.00000           0.348192            9.47479
    179       0.00000           0.350490            9.53733
    180       0.00000           0.364340            9.91419

  Highest occupied state (VBM) at     -5.20499565 eV
  | Occupation number:      2.00000000

  Lowest unoccupied state (CBM) at    -2.47193740 eV
  | Occupation number:      0.00000000

  Overall HOMO-LUMO gap:      2.73305825 eV.

  Total energy components:
  | Sum of eigenvalues            :        -526.64620330 Ha      -14330.77233340 eV
  | XC energy correction          :        -135.86252749 Ha       -3697.00747463 eV
  | XC potential correction       :         174.52310175 Ha        4749.01522583 eV
  | Free-atom electrostatic energy:        -403.39283927 Ha      -10976.87765384 eV
  | Hartree energy correction     :         -33.61030486 Ha        -914.58292877 eV
  | Entropy correction            :           0.00000000 Ha           0.00000000 eV
  | ---------------------------
  | Total energy                  :        -924.98877317 Ha      -25170.22516481 eV
  | Total energy, T -> 0          :        -924.98877317 Ha      -25170.22516481 eV  <-- do not rely on this value for anything but (periodic) metals
  | Electronic free energy        :        -924.98877317 Ha      -25170.22516481 eV

  Derived energy quantities:
  | Kinetic energy                :         921.80591003 Ha       25083.61505207 eV
  | Electrostatic energy          :       -1710.93215570 Ha      -46556.83274226 eV
  | Energy correction for multipole
  | error in Hartree potential    :          -0.10307987 Ha          -2.80494585 eV
  | Sum of eigenvalues per atom                           :        -341.20886508 eV
  | Total energy (T->0) per atom                          :        -599.29107535 eV  <-- do not rely on this value for anything but (periodic) metals
  | Electronic free energy per atom                       :        -599.29107535 eV
  End evaluation of scaled ZORA corrections.
  | Time for scaled ZORA corrections           :        2.612 s           2.613 s
------------------------------------------------------------

  Energy and forces in a compact form:
  | Total energy uncorrected      :         -0.251702251648122E+05 eV
  | Total energy corrected        :         -0.251702251648122E+05 eV  <-- do not rely on this value for anything but (periodic) metals
  | Electronic free energy        :         -0.251702251648122E+05 eV

  ------------------------------------ 
  Start decomposition of the XC Energy 
  ------------------------------------ 
  X and C from original XC functional choice 
  Hartree-Fock Energy :          0.000000000 Ha              0.000000000 eV
  X Energy            :       -130.487882067 Ha          -3550.755931517 eV
  C Energy            :         -5.374645421 Ha           -146.251543110 eV
  Total XC Energy     :       -135.862527488 Ha          -3697.007474627 eV
  ------------------------------------ 
  LDA X and C from self-consistent density 
  X Energy LDA        :       -118.122700893 Ha          -3214.282232187 eV
  C Energy LDA        :        -10.393936951 Ha           -282.833414836 eV
  ------------------------------------ 
  End decomposition of the XC Energy 
  ------------------------------------ 

------------------------------------------------------------

------------------------------------------------------------------------------
  Final output of selected total energy values:

  The following output summarizes some interesting total energy values
  at the end of a run (AFTER all relaxation, molecular dynamics, etc.).

  | Total energy of the DFT / Hartree-Fock s.c.f. calculation      :         -25170.225164812 eV
  | Final zero-broadening corrected energy (caution - metals only) :         -25170.225164812 eV
  | For reference only, the value of 1 Hartree used in FHI-aims is :             27.211384500 eV

  Before relying on these values, please be sure to understand exactly which
  total energy value is referred to by a given number. Different objects may
  all carry the same name 'total energy'. Definitions:

  Total energy of the DFT / Hartree-Fock s.c.f. calculation:
  | Note that this energy does not include ANY quantities calculated after the
  | s.c.f. cycle, in particular not ANY RPA, MP2, etc. many-body perturbation terms.
  | Scalar relativistic effects have been included in the 'scaled ZORA' approximation.

  Final zero-broadening corrected energy:
  | For metallic systems only, a broadening of the occupation numbers at the Fermi
  | level can be extrapolated back to zero broadening by an electron-gas inspired
  | formula. For all systems that are not real metals, this value can be
  | meaningless and should be avoided.

------------------------------------------------------------------------------
  Methods described in the following list of references were used in this FHI-aims run.
  If you publish the results, please make sure to cite these reference if they apply.
  FHI-aims is an academic code, and for our developers (often, Ph.D. students
  and postdocs), scientific credit in the community is essential.
  Thank you for helping us!

  For any use of FHI-aims, please cite:

    Volker Blum, Ralf Gehrke, Felix Hanke, Paula Havu, Ville Havu,
    Xinguo Ren, Karsten Reuter, and Matthias Scheffler
    'Ab initio molecular simulations with numeric atom-centered orbitals'
    Computer Physics Communications 180, 2175-2196 (2009)
    http://dx.doi.org/10.1016/j.cpc.2009.06.022


  The scalable eigensolver library ELPA was used in your run.
  ELPA is essential especially for large systems on hundreds or thousands of CPUs.
  For ELPA, please cite:

    Andreas Marek, Volker Blum, Rainer Johanni, Ville Havu, Bruno Lang,
    Thomas Auckenthaler, Alexander Heinecke, Hans-Joachim Bungartz, and Hermann Lederer,
    'The ELPA Library - Scalable Parallel Eigenvalue Solutions
    for Electronic Structure Theory and Computational Science'
    The Journal of Physics: Condensed Matter 26, 213201 (2014).
    http://dx.doi.org/10.1088/0953-8984/26/21/213201


  The ELSI infrastructure was used in your run to solve the Kohn-Sham electronic structure.
  Please check out http://elsi-interchange.org to learn more.
  If scalability is important for your project, please acknowledge ELSI by citing:

    V. W-z. Yu, F. Corsetti, A. Garcia, W. P. Huhn, M. Jacquelin, W. Jia,
    B. Lange, L. Lin, J. Lu, W. Mi, A. Seifitokaldani, A. Vazquez-Mayagoitia,
    C. Yang, H. Yang, and V. Blum
    'ELSI: A unified software interface for Kohn-Sham electronic structure solvers'
    Computer Physics Communications 222, 267-285 (2018).
    http://dx.doi.org/10.1016/j.cpc.2017.09.007


  For the real-space grid partitioning and parallelization used in this calculation, please cite:

    Ville Havu, Volker Blum, Paula Havu, and Matthias Scheffler,
    'Efficient O(N) integration for all-electron electronic structure calculation'
    'using numerically tabulated basis functions'
    Journal of Computational Physics 228, 8367-8379 (2009).
    http://dx.doi.org/10.1016/j.jcp.2009.08.008

  Of course, there are many other important community references, e.g., those cited in the
  above references. Our list is limited to references that describe implementations in the
  FHI-aims code. The reason is purely practical (length of this list) - please credit others as well.

------------------------------------------------------------
          Leaving FHI-aims.
          Date     :  20210620, Time     :  174545.106

          Computational steps:
          | Number of self-consistency cycles          :           15
          | Number of SCF (re)initializations          :            1

          Detailed time accounting                     :  max(cpu_time)    wall_clock(cpu1)
          | Total time                                 :       51.621 s          51.799 s
          | Preparation time                           :        0.193 s           0.188 s
          | Boundary condition initalization           :        0.000 s           0.003 s
          | Grid partitioning                          :        0.531 s           0.535 s
          | Preloading free-atom quantities on grid    :        0.013 s           0.016 s
          | Free-atom superposition energy             :        0.042 s           0.043 s
          | Total time for integrations                :       29.059 s          29.066 s
          | Total time for solution of K.-S. equations :        1.697 s           1.718 s
          | Total time for density update              :       10.718 s          10.684 s
          | Total time for mixing                      :        0.097 s           0.097 s
          | Total time for Hartree multipole update    :        0.121 s           0.128 s
          | Total time for Hartree multipole sum       :        5.920 s           5.925 s
          | Total time for total energy evaluation     :        0.005 s           0.029 s
          | Total time for scaled ZORA corrections     :        2.612 s           2.613 s

          Partial memory accounting:
          | Residual value for overall tracked memory usage across tasks :     0.000000 MB (should be 0.000000 MB)
          | Peak values for overall tracked memory usage (after allocating zora_vector2):
          |   Minimum:       15.881 MB (on task 35)
          |   Maximum:       19.374 MB (on task 31)
          |   Average:       17.780 MB
          | Largest tracked array allocation (hamiltonian_shell):
          |   Minimum:        3.308 MB (on task  1)
          |   Maximum:        3.308 MB (on task  1)
          |   Average:        3.308 MB
          Note:  These values currently only include a subset of arrays which are explicitly tracked.
          The "true" memory usage will be greater.

          Have a nice day.
------------------------------------------------------------
