  MPI-parallelism will be employed.
------------------------------------------------------------
          Invoking FHI-aims ...
          Version 180607
          Git rev. (modified): 6724847 Fix JSON memory corruption in scf_solver
          Compiled on 2018/06/27 at 16:00:31 on host coe.psc.edu.

          When using FHI-aims, please cite the following reference:

          Volker Blum, Ralf Gehrke, Felix Hanke, Paula Havu,
          Ville Havu, Xinguo Ren, Karsten Reuter, and Matthias Scheffler,
          'Ab Initio Molecular Simulations with Numeric Atom-Centered Orbitals',
          Computer Physics Communications 180, 2175-2196 (2009)

          For any questions about FHI-aims, please visit the aimsclub website
          with its forums and wiki. Contributions to both the forums and the
          wiki are warmly encouraged - they are for you, and everyone is welcome there.

------------------------------------------------------------



  Date     :  20210620, Time     :  174915.034
  Time zero on CPU 1             :   0.204479000000000E+00  s.
  Internal wall clock time zero  :           393443355.034  s.

  FHI-aims created a unique identifier for this run for later identification
  aims_uuid : 02C7A1E1-4570-4FBF-A5F2-784154259E2E

  Using       56 parallel tasks.
  Task        0 on host d001 reporting.
  Task        1 on host d001 reporting.
  Task        2 on host d001 reporting.
  Task        3 on host d001 reporting.
  Task        4 on host d001 reporting.
  Task        5 on host d001 reporting.
  Task        6 on host d001 reporting.
  Task        7 on host d001 reporting.
  Task        8 on host d001 reporting.
  Task        9 on host d001 reporting.
  Task       10 on host d001 reporting.
  Task       11 on host d001 reporting.
  Task       12 on host d001 reporting.
  Task       13 on host d001 reporting.
  Task       14 on host d001 reporting.
  Task       15 on host d001 reporting.
  Task       16 on host d001 reporting.
  Task       17 on host d001 reporting.
  Task       18 on host d001 reporting.
  Task       19 on host d001 reporting.
  Task       20 on host d001 reporting.
  Task       21 on host d001 reporting.
  Task       22 on host d001 reporting.
  Task       23 on host d001 reporting.
  Task       24 on host d001 reporting.
  Task       25 on host d001 reporting.
  Task       26 on host d001 reporting.
  Task       27 on host d001 reporting.
  Task       28 on host d001 reporting.
  Task       29 on host d001 reporting.
  Task       30 on host d001 reporting.
  Task       31 on host d001 reporting.
  Task       32 on host d001 reporting.
  Task       33 on host d001 reporting.
  Task       34 on host d001 reporting.
  Task       35 on host d001 reporting.
  Task       36 on host d001 reporting.
  Task       37 on host d001 reporting.
  Task       38 on host d001 reporting.
  Task       39 on host d001 reporting.
  Task       40 on host d001 reporting.
  Task       41 on host d001 reporting.
  Task       42 on host d001 reporting.
  Task       43 on host d001 reporting.
  Task       44 on host d001 reporting.
  Task       45 on host d001 reporting.
  Task       46 on host d001 reporting.
  Task       47 on host d001 reporting.
  Task       48 on host d001 reporting.
  Task       49 on host d001 reporting.
  Task       50 on host d001 reporting.
  Task       51 on host d001 reporting.
  Task       52 on host d001 reporting.
  Task       53 on host d001 reporting.
  Task       54 on host d001 reporting.
  Task       55 on host d001 reporting.

  Performing system and environment tests:
  *** Environment variable OMP_NUM_THREADS is not set
  *** For performance reasons you might want to set it to 1
  | Stacksize not measured: no C compiler
  | Checking for scalapack...
  | Testing pdtran()...
  | All pdtran() tests passed.

  Obtaining array dimensions for all initial allocations:
  
  -----------------------------------------------------------------------
  Parsing control.in (first pass over file, find array dimensions only).
  The contents of control.in will be repeated verbatim below
  unless switched off by setting 'verbatim_writeout .false.' .
  in the first line of control.in .
  -----------------------------------------------------------------------
  
  #===============================================================================
  # FHI-aims file: ./Runs/es/control.in
  # Created using the Atomic Simulation Environment (ASE)
  # Mon Jan 13 16:04:38 2020
  #===============================================================================
  xc                                 pbe
  relativistic                       zora scalar 1e-12
  occupation_type                    gaussian 0.0001
  load_balancing                     .true.
  KS_method                          scalapack_fast
  mixer                              pulay
  n_max_pulay                        5
  charge_mix_param                   0.4
  sc_accuracy_etot                   1e-6
  sc_accuracy_eev                    1e-4
  sc_accuracy_rho                    1e-6
  sc_iter_limit                      100
  prodbas_threshold                  1e-4
  basis_threshold                    1e-5
  override_illconditioning           .true.
  use_logsbt                         .true.
  spin                               none
  charge                             0
  #===============================================================================
  
  ################################################################################
  #
  #  FHI-aims code project
  # Volker Blum, Fritz Haber Institute Berlin, 2009
  #
  #  Suggested "tight" defaults for H atom (to be pasted into control.in file)
  #
  ################################################################################
    species        H
  #     global species definitions
      nucleus             1
      mass                1.00794
  #
      l_hartree           6
  #
      cut_pot             4.0  2.0  1.0
      basis_dep_cutoff    1e-4
  #
      radial_base         24 7.0
      radial_multiplier   2
      angular_grids       specified
        division   0.1930   50
        division   0.3175  110
        division   0.4293  194
        division   0.5066  302
        division   0.5626  434
  #      division   0.5922  590
  #      division   0.6227  974
  #      division   0.6868 1202
  #      outer_grid  770
        outer_grid  434
  ################################################################################
  #
  #  Definition of "minimal" basis
  #
  ################################################################################
  #     valence basis states
      valence      1  s   1.
  #     ion occupancy
      ion_occ      1  s   0.5
  ################################################################################
  #
  #  Suggested additional basis functions. For production calculations,
  #  uncomment them one after another (the most important basis functions are
  #  listed first).
  #
  #  Basis constructed for dimers: 0.5 A, 0.7 A, 1.0 A, 1.5 A, 2.5 A
  #
  ################################################################################
  #  "First tier" - improvements: -1014.90 meV to -62.69 meV
       hydro 2 s 2.1
       hydro 2 p 3.5
  #  "Second tier" - improvements: -12.89 meV to -1.83 meV
       hydro 1 s 0.85
       hydro 2 p 3.7
       hydro 2 s 1.2
       hydro 3 d 7
  #  "Third tier" - improvements: -0.25 meV to -0.12 meV
  #     hydro 4 f 11.2
  #     hydro 3 p 4.8
  #     hydro 4 d 9
  #     hydro 3 s 3.2
  ################################################################################
  #
  # For methods that use the localized form of the "resolution of identity" for
  # the two-electron Coulomb operator (RI_method LVL), particularly Hartree-Fock and
  # hybrid density functional calculations, the highest accuracy can be obtained by
  # uncommenting the line beginning with "for_aux"  below, thus adding an extra g radial
  # function to the construction of the product basis set for the expansion.
  # See Ref. New J. Phys. 17, 093020 (2015) for more information, particularly Figs. 1 and 6.
  #
  ################################################################################
  #
  # for_aux hydro 5 g 6.0
  ################################################################################
  #
  #  FHI-aims code project
  # Volker Blum, Fritz Haber Institute Berlin, 2009
  #
  #  Suggested "tight" defaults for C atom (to be pasted into control.in file)
  #
  ################################################################################
    species        C
  #     global species definitions
      nucleus             6
      mass                12.0107
  #
      l_hartree           6
  #
      cut_pot             4.0  2.0  1.0
      basis_dep_cutoff    1e-4
  #
      radial_base         34 7.0
      radial_multiplier   2
      angular_grids specified
        division   0.2187   50
        division   0.4416  110
        division   0.6335  194
        division   0.7727  302
        division   0.8772  434
  #      division   0.9334  590
  #      division   0.9924  770
  #      division   1.0230  974
  #      division   1.5020 1202
  #     outer_grid  974
        outer_grid  434
  ################################################################################
  #
  #  Definition of "minimal" basis
  #
  ################################################################################
  #     valence basis states
      valence      2  s   2.
      valence      2  p   2.
  #     ion occupancy
      ion_occ      2  s   1.
      ion_occ      2  p   1.
  ################################################################################
  #
  #  Suggested additional basis functions. For production calculations,
  #  uncomment them one after another (the most important basis functions are
  #  listed first).
  #
  #  Constructed for dimers: 1.0 A, 1.25 A, 1.5 A, 2.0 A, 3.0 A
  #
  ################################################################################
  #  "First tier" - improvements: -1214.57 meV to -155.61 meV
       hydro 2 p 1.7
       hydro 3 d 6
       hydro 2 s 4.9
  #  "Second tier" - improvements: -67.75 meV to -5.23 meV
       hydro 4 f 9.8
       hydro 3 p 5.2
       hydro 3 s 4.3
       hydro 5 g 14.4
       hydro 3 d 6.2
  #  "Third tier" - improvements: -2.43 meV to -0.60 meV
  #     hydro 2 p 5.6
  #     hydro 2 s 1.4
  #     hydro 3 d 4.9
  #     hydro 4 f 11.2
  #  "Fourth tier" - improvements: -0.39 meV to -0.18 meV
  #     hydro 2 p 2.1
  #     hydro 5 g 16.4
  #     hydro 4 d 13.2
  #     hydro 3 s 13.6
  #     hydro 4 f 17.6
  #  Further basis functions - improvements: -0.08 meV and below
  #     hydro 3 s 2
  #     hydro 3 p 6
  #     hydro 4 d 20
  ################################################################################
  #
  # For methods that use the localized form of the "resolution of identity" for
  # the two-electron Coulomb operator (RI_method LVL), particularly Hartree-Fock and
  # hybrid density functional calculations, the highest accuracy can be obtained by
  # uncommenting the line beginning with "for_aux"  below, thus adding an extra g radial
  # function to the construction of the product basis set for the expansion.
  # See Ref. New J. Phys. 17, 093020 (2015) for more information, particularly Figs. 1 and 6.
  #
  ################################################################################
  #
  # for_aux hydro 5 g 6.0
  
  -----------------------------------------------------------------------
  Completed first pass over input file control.in .
  -----------------------------------------------------------------------
  
  
  -----------------------------------------------------------------------
  Parsing geometry.in (first pass over file, find array dimensions only).
  The contents of geometry.in will be repeated verbatim below
  unless switched off by setting 'verbatim_writeout .false.' .
  in the first line of geometry.in .
  -----------------------------------------------------------------------
  
  #=======================================================
  # FHI-aims file: geometry.in
  # Created using the Atomic Simulation Environment (ASE)
  # Sun Jun 20 15:47:02 2021
  #=======================================================
  atom 14.0661780000000007 17.6195009999999996 32.6726650000000021 C
  atom 13.0592059999999996 18.4365449999999989 32.2141919999999971 C
  atom 15.0394720000000000 17.1823510000000006 31.8060560000000017 C
  atom 14.0880690000000008 17.3127579999999988 33.7187180000000026 H
  atom 13.0468569999999993 18.8485300000000002 30.8755050000000004 C
  atom 12.2722069999999999 18.7849550000000001 32.8825829999999968 H
  atom 15.0282459999999993 17.5858470000000011 30.4782520000000012 C
  atom 15.8308490000000006 16.5157519999999991 32.1473939999999985 H
  atom 12.2420089999999995 19.5018509999999985 30.5474999999999994 H
  atom 14.0454100000000004 18.4346040000000002 29.9939309999999999 C
  atom 15.8221489999999996 17.2265939999999986 29.8276830000000004 H
  atom 14.0319389999999995 18.8797010000000007 28.5668140000000008 C
  atom 13.0563990000000008 19.6961359999999992 28.0566439999999986 C
  atom 15.0029880000000002 18.5022519999999986 27.6852400000000003 C
  atom 12.2337019999999992 20.0448379999999986 28.6776909999999994 H
  atom 13.0620119999999993 20.1084050000000012 26.7329219999999985 C
  atom 15.8242820000000002 17.8584619999999994 27.9958320000000001 H
  atom 15.0086010000000005 18.9145210000000006 26.3615180000000002 C
  atom 12.2407179999999993 20.7521950000000004 26.4223309999999998 H
  atom 14.0330610000000000 19.7309559999999991 25.8513480000000015 C
  atom 15.8312980000000003 18.5658190000000012 25.7404709999999994 H
  atom 14.0195900000000009 20.1760529999999996 24.4242319999999999 C
  atom 13.0367540000000002 21.0248099999999987 23.9399100000000011 C
  atom 15.0181430000000002 19.7621269999999996 23.5426579999999994 C
  atom 13.0255279999999996 21.4283059999999992 22.6121070000000017 C
  atom 12.2428509999999999 21.3840630000000012 24.5904789999999984 H
  atom 15.0057939999999999 20.1741120000000009 22.2039709999999992 C
  atom 15.8229910000000000 19.1088060000000013 23.8706630000000004 H
  atom 12.2341510000000007 22.0949050000000007 22.2707690000000014 H
  atom 13.9988220000000005 20.9911560000000001 21.7454980000000013 C
  atom 15.7927929999999996 19.8257019999999997 21.5355799999999995 H
  atom 13.9769310000000004 21.2978990000000010 20.6994450000000008 H
  
  -----------------------------------------------------------------------
  Completed first pass over input file geometry.in .
  -----------------------------------------------------------------------
  

  Basic array size parameters:
  | Number of species                 :        2
  | Number of atoms                   :       32
  | Max. basis fn. angular momentum   :        4
  | Max. atomic/ionic basis occupied n:        2
  | Max. number of basis fn. types    :        2
  | Max. radial fns per species/type  :        8
  | Max. logarithmic grid size        :     1277
  | Max. radial integration grid size :       69
  | Max. angular integration grid size:      434
  | Max. angular grid division number :        8
  | Radial grid for Hartree potential :     1277
  | Number of spin channels           :        1

------------------------------------------------------------
          Reading file control.in.
------------------------------------------------------------
  XC: Using PBE gradient-corrected functionals.
  Scalar relativistic treatment of kinetic energy: ZORA.
  Threshold value for ZORA:   0.100000E-11
  Occupation type: Gaussian broadening, width =   0.100000E-03 eV.
  Since 'load_balancing .true.' is present in control.in, automatically turning on 'use_local_index .true.'.
  Using load balancing for integrations.
  Kohn-Sham electronic structure solved by the ELSI library.
  Using pulay charge density mixing.
  Pulay mixing - number of memorized iterations:    5
  Charge density mixing - mixing parameter:     0.4000
  Convergence accuracy of total energy:  0.1000E-05
  Convergence accuracy of sum of eigenvalues:  0.1000E-03
  Convergence accuracy of self-consistent charge density:  0.1000E-05
  Maximum number of s.-c. iterations  :   100
  * Ignoring prodbas_threshold
  Threshold for basis singularities:  0.1000E-04
  override_illconditioning: Explicitly overriding any built-in checks for an ill-conditioned overlap matrix.
  *** WARNING: If you use this flag, you should really know what you are doing.
  *** DO NOT keep this flag set by default in all your control.in files.
  Using 1D integrations for auxiliary 2-center integrals.
  Spin treatment: No spin polarisation.
  Charge =   0.000000E+00: Neutral system requested explicitly.
 
  Reading configuration options for species H                   .
  | Found nuclear charge :   1.0000
  | Found atomic mass :    1.00794000000000      amu
  | Found l_max for Hartree potential  :   6
  | Found cutoff potl. onset [A], width [A], scale factor :    4.00000    2.00000    1.00000
  | Threshold for basis-dependent cutoff potential is   0.100000E-03
  | Found data for basic radial integration grid :    24 points, outermost radius =    7.000 A
  | Found multiplier for basic radial grid :   2
  | Found angular grid specification: user-specified.
  | Specified grid contains     6 separate shells.
  | Check grid settings after all constraints further below.
  | Found free-atom valence shell :  1 s   1.000
  | No ionic wave fns used. Skipping ion_occ.
  | Found hydrogenic basis function :  2 s   2.100
  | Found hydrogenic basis function :  2 p   3.500
  | Found hydrogenic basis function :  1 s   0.850
  | Found hydrogenic basis function :  2 p   3.700
  | Found hydrogenic basis function :  2 s   1.200
  | Found hydrogenic basis function :  3 d   7.000
  Species H                   : Missing cutoff potential type.
  Defaulting to exp(1/x)/(1-x)^2 type cutoff potential.
  Species H : No 'logarithmic' tag. Using default grid for free atom:
  | Default logarithmic grid data [bohr] : 0.1000E-03 0.1000E+03 0.1012E+01
  Species H : On-site basis accuracy parameter (for Gram-Schmidt orthonormalisation) not specified.
  Using default value basis_acc =  0.1000000E-03.
  Species H                   : Using default innermost maximum threshold i_radial=  2 for radial functions.
  Species H                   : Default cutoff onset for free atom density etc. : 0.40000000E+01 AA.
  Species H                   : Basic radial grid will be enhanced according to radial_multiplier =   2, to contain    49 grid points.
 
  Reading configuration options for species C                   .
  | Found nuclear charge :   6.0000
  | Found atomic mass :    12.0107000000000      amu
  | Found l_max for Hartree potential  :   6
  | Found cutoff potl. onset [A], width [A], scale factor :    4.00000    2.00000    1.00000
  | Threshold for basis-dependent cutoff potential is   0.100000E-03
  | Found data for basic radial integration grid :    34 points, outermost radius =    7.000 A
  | Found multiplier for basic radial grid :   2
  | Found angular grid specification: user-specified.
  | Specified grid contains     6 separate shells.
  | Check grid settings after all constraints further below.
  | Found free-atom valence shell :  2 s   2.000
  | Found free-atom valence shell :  2 p   2.000
  | No ionic wave fns used. Skipping ion_occ.
  | No ionic wave fns used. Skipping ion_occ.
  | Found hydrogenic basis function :  2 p   1.700
  | Found hydrogenic basis function :  3 d   6.000
  | Found hydrogenic basis function :  2 s   4.900
  | Found hydrogenic basis function :  4 f   9.800
  | Found hydrogenic basis function :  3 p   5.200
  | Found hydrogenic basis function :  3 s   4.300
  | Found hydrogenic basis function :  5 g  14.400
  | Found hydrogenic basis function :  3 d   6.200
  Species C                   : Missing cutoff potential type.
  Defaulting to exp(1/x)/(1-x)^2 type cutoff potential.
  Species C : No 'logarithmic' tag. Using default grid for free atom:
  | Default logarithmic grid data [bohr] : 0.1000E-03 0.1000E+03 0.1012E+01
  Species C : On-site basis accuracy parameter (for Gram-Schmidt orthonormalisation) not specified.
  Using default value basis_acc =  0.1000000E-03.
  Species C                   : Using default innermost maximum threshold i_radial=  2 for radial functions.
  Species C                   : Default cutoff onset for free atom density etc. : 0.40000000E+01 AA.
  Species C                   : Basic radial grid will be enhanced according to radial_multiplier =   2, to contain    69 grid points.
 
  Finished reading input file 'control.in'. Consistency checks are next.
 
  MPI_IN_PLACE appears to work with this MPI implementation.
  | Keeping use_mpi_in_place .true. (see manual).
  Target number of points in a grid batch is not set. Defaulting to  100
  Method for grid partitioning is not set. Defaulting to parallel hash+maxmin partitioning.
  Batch size limit is not set. Defaulting to    200
  By default, will store active basis functions for each batch.
  If in need of memory, prune_basis_once .false. can be used to disable this option.
  communication_type for Hartree potential was not specified.
  Defaulting to calc_hartree .
  Pulay mixer: Number of initial linear mixing iterations not set.
  Defaulting to    0 iterations.
  Work space size for distributed Hartree potential not set.
  Defaulting to   0.200000E+03 MB.
  Algorithm-dependent basis array size parameters:
  | n_max_pulay                         :        5
  Presetting      1001 iterations before the initial mixing cycle
  is restarted anyway using the sc_init_iter criterion / keyword.
  Presetting a factor      1.000 between actual scf density residual
  and density convergence criterion sc_accuracy_rho below which sc_init_iter
  takes no effect.
  Calculation of forces was not defined in control.in. No forces will be calculated.
  Geometry relaxation not requested: no relaxation will be performed.
  No accuracy limit for integral partition fn. given. Defaulting to  0.1000E-14.
  No threshold value for u(r) in integrations given. Defaulting to  0.1000E-05.
  No accuracy for occupation numbers given. Defaulting to  0.1000E-12.
  No threshold value for occupation numbers given. Defaulting to  0.0000E+00.
  No accuracy for fermi level given. Defaulting to  0.1000E-19.
  Maximum # of iterations to find E_F not set. Defaulting to  200.
  Will not use alltoall communication since running on < 1024 CPUs.
  partition_type (choice of integration weights) for integrals was not specified.
  | Using a version of the partition function of Stratmann and coworkers ('stratmann_sparse').
  | At each grid point, the set of atoms used to build the partition table is smoothly restricted to
  | only those atoms whose free-atom density would be non-zero at that grid point.
  Partitioning for Hartree potential was not defined. Using partition_type for integrals.
  | Adjusted default value of keyword multip_moments_threshold to:       0.10000000E-11
  | This value may affect high angular momentum components of the Hartree potential in periodic systems.
  No q(lm)/r^(l+1) cutoff set for long-range Hartree potential.
  | Using default value of  0.100000E-09 .
  | Verify using the multipole_threshold keyword.
  Defaulting to new monopole extrapolation.
  Density update method: automatic selection selected.
 * Warning: use_local_index and/or load_balancing needs packed_matrix_format = index
 * Changing the default setting to packed_matrix_format = index
------------------------------------------------------------


------------------------------------------------------------
          Reading geometry description geometry.in.
------------------------------------------------------------
  Input structure read successfully.
  The structure contains       32 atoms,  and a total of        122.000 electrons.

  Input geometry:
  | No unit cell requested.
  | Atomic structure:
  |       Atom                x [A]            y [A]            z [A]
  |    1: Species C            14.06617800       17.61950100       32.67266500
  |    2: Species C            13.05920600       18.43654500       32.21419200
  |    3: Species C            15.03947200       17.18235100       31.80605600
  |    4: Species H            14.08806900       17.31275800       33.71871800
  |    5: Species C            13.04685700       18.84853000       30.87550500
  |    6: Species H            12.27220700       18.78495500       32.88258300
  |    7: Species C            15.02824600       17.58584700       30.47825200
  |    8: Species H            15.83084900       16.51575200       32.14739400
  |    9: Species H            12.24200900       19.50185100       30.54750000
  |   10: Species C            14.04541000       18.43460400       29.99393100
  |   11: Species H            15.82214900       17.22659400       29.82768300
  |   12: Species C            14.03193900       18.87970100       28.56681400
  |   13: Species C            13.05639900       19.69613600       28.05664400
  |   14: Species C            15.00298800       18.50225200       27.68524000
  |   15: Species H            12.23370200       20.04483800       28.67769100
  |   16: Species C            13.06201200       20.10840500       26.73292200
  |   17: Species H            15.82428200       17.85846200       27.99583200
  |   18: Species C            15.00860100       18.91452100       26.36151800
  |   19: Species H            12.24071800       20.75219500       26.42233100
  |   20: Species C            14.03306100       19.73095600       25.85134800
  |   21: Species H            15.83129800       18.56581900       25.74047100
  |   22: Species C            14.01959000       20.17605300       24.42423200
  |   23: Species C            13.03675400       21.02481000       23.93991000
  |   24: Species C            15.01814300       19.76212700       23.54265800
  |   25: Species C            13.02552800       21.42830600       22.61210700
  |   26: Species H            12.24285100       21.38406300       24.59047900
  |   27: Species C            15.00579400       20.17411200       22.20397100
  |   28: Species H            15.82299100       19.10880600       23.87066300
  |   29: Species H            12.23415100       22.09490500       22.27076900
  |   30: Species C            13.99882200       20.99115600       21.74549800
  |   31: Species H            15.79279300       19.82570200       21.53558000
  |   32: Species H            13.97693100       21.29789900       20.69944500
  |

  | The smallest distance between any two atoms is         1.08728833 AA.
  |
  | The first atom of this pair is atom number                      5 .
  | The second atom of this pair is atom number                     9 .

  Number of empty states per atom not set in control.in - providing a guess from actual geometry.
  | Total number of empty states used during s.c.f. cycle:       75
  If you use a very high smearing, use empty_states (per atom!) in control.in to increase this value.

  Structure-dependent array size parameters: 
  | Maximum number of distinct radial functions  :       18
  | Maximum number of basis functions            :      912
  | Number of Kohn-Sham states (occupied + empty):      136
------------------------------------------------------------

------------------------------------------------------------
          Preparing all fixed parts of the calculation.
------------------------------------------------------------
  Determining machine precision:
    2.225073858507201E-308
  Setting up grids for atomic and cluster calculations.

  Creating wave function, potential, and density for free atoms.

  Species: H

  List of occupied orbitals and eigenvalues:
    n    l              occ      energy [Ha]    energy [eV]
    1    0           1.0000        -0.238386        -6.4868


  Species: C

  List of occupied orbitals and eigenvalues:
    n    l              occ      energy [Ha]    energy [eV]
    1    0           2.0000       -10.049212      -273.4530
    2    0           2.0000        -0.504761       -13.7352
    2    1           2.0000        -0.193631        -5.2690

  Creating fixed part of basis set: Ionic, confined, hydrogenic.
 
  H                    hydrogenic:
 
  List of hydrogenic basis orbitals: 
    n    l      effective z      eigenvalue [eV]  inner max. [A]     outer max. [A]     outer radius [A]   
    2    0         2.100000       -14.9965           0.193243           1.317208           5.373006
    2    1         3.500000       -41.6672           0.602369           0.602369           4.056063
    1    0         0.850000        -9.8292           0.624871           0.624871           5.373006
    2    1         3.700000       -46.5653           0.573622           0.573622           3.910002
    2    0         1.200000        -4.5995           0.334980           2.228188           5.505995
    3    2         7.000000       -74.0753           0.680699           0.680699           3.769201
 
 
  C                    hydrogenic:
 
  List of hydrogenic basis orbitals: 
    n    l      effective z      eigenvalue [eV]  inner max. [A]     outer max. [A]     outer radius [A]   
    2    1         1.700000        -9.8152           1.245706           1.245706           5.401630
    3    2         6.000000       -54.4226           0.792453           0.792453           4.178599
    2    0         4.900000       -81.6681           0.082559           0.562749           3.353238
    4    3         9.800000       -81.6681           0.863254           0.863254           4.028125
    3    1         5.200000       -40.8774           0.305389           1.215618           4.898362
    3    0         4.300000       -27.9508           0.091041           1.610311           5.401630
    5    4        14.400000      -112.8510           0.917666           0.917666           3.883070
    3    2         6.200000       -58.1113           0.763917           0.763917           4.077671
 

  Adding cutoff potential to free-atom effective potential.
  Creating atomic-like basis functions for current effective potential.

  Species H                   :

  List of atomic basis orbitals and eigenvalues:
    n    l      energy [Ha]    energy [eV]    outer radius [A]
    1    0        -0.238386        -6.4868       5.373006


  Species C                   :

  List of atomic basis orbitals and eigenvalues:
    n    l      energy [Ha]    energy [eV]    outer radius [A]
    1    0       -10.049212      -273.4530       1.934409
    2    0        -0.504761       -13.7352       5.271162
    2    1        -0.193631        -5.2690       5.401630

  Assembling full basis from fixed parts.
  | Species H :   atomic orbital   1 s accepted.
  | Species H :    hydro orbital   2 s accepted.
  | Species H :    hydro orbital   1 s accepted.
  | Species H :    hydro orbital   2 s accepted.
  | Species H :    hydro orbital   2 p accepted.
  | Species H :    hydro orbital   2 p accepted.
  | Species H :    hydro orbital   3 d accepted.
  | Species C :   atomic orbital   1 s accepted.
  | Species C :    hydro orbital   2 s accepted.
  | Species C :   atomic orbital   2 s accepted.
  | Species C :    hydro orbital   3 s accepted.
  | Species C :    hydro orbital   3 p accepted.
  | Species C :   atomic orbital   2 p accepted.
  | Species C :    hydro orbital   2 p accepted.
  | Species C :    hydro orbital   3 d accepted.
  | Species C :    hydro orbital   3 d accepted.
  | Species C :    hydro orbital   4 f accepted.
  | Species C :    hydro orbital   5 g accepted.
 
  Basis size parameters after reduction:
  | Total number of radial functions:       18
  | Total number of basis functions :      912
 
  Per-task memory consumption for arrays in subroutine allocate_ext:
  |           4.435256MB.
  Testing on-site integration grid accuracy.
  |  Species  Function  <phi|h_atom|phi> (log., in eV)  <phi|h_atom|phi> (rad., in eV)
           1        1                 -6.4870767962                 -6.4871688290
           1        2                 13.5032046589                 13.5028982997
           1        3                 32.8195184817                 32.8119941656
           1        4                 33.8513856511                 33.7670005767 ***
           1        5                 28.8544614965                 28.8544615203
           1        6                 59.6326952547                 59.6327656460
           1        7                 60.2719308513                 60.2719305949
           2        8               -273.4529726040               -273.4529710464
           2        9                -10.7721037319                -10.7721022101
           2       10                 17.6044132601                 17.6044162063
           2       11                 53.7706460658                 53.7706913770
           2       12                 15.0973290362                 15.0973256030
           2       13                  3.8545134692                  3.8545724687
           2       14                 12.1156992592                 12.1182024431
           2       15                 29.4352039302                 29.4352041816
           2       16                 54.8741144708                 54.8740268729
           2       17                 59.3556032049                 59.3556031382
           2       18                 93.4551837154                 93.4551838009
 * Note: Onsite integrals marked "***" above are less accurate than
 * onsite_accuracy_threshold =    0.03000 eV. Usually, this is harmless.
 * When in doubt, tighten the "radial" and/or "radial_multiplier" flags to check.

  Preparing densities etc. for the partition functions (integrals / Hartree potential).

  Preparations completed.
  max(cpu_time)          :      0.203 s.
  Wall clock time (cpu1) :      0.203 s.
------------------------------------------------------------

------------------------------------------------------------
          Begin self-consistency loop: Initialization.

          Date     :  20210620, Time     :  174915.411
------------------------------------------------------------

  Initializing index lists of integration centers etc. from given atomic structure:
  | Number of centers in hartree potential         :        32
  | Number of centers in hartree multipole         :        32
  | Number of centers in electron density summation:        32
  | Number of centers in basis integrals           :        32
  | Number of centers in integrals                 :        32
  | Number of centers in hamiltonian               :        32
  * Using 56 tasks for Scalapack Eigenvalue solver.
  Detailed listing of tasks and assigned k-points:
  (for non-periodic systems, the "k-point" denotes an internal label only)
   Task     0 k-point     1 on d001
   Task     1 k-point     1 on d001
   Task     2 k-point     1 on d001
   Task     3 k-point     1 on d001
   Task     4 k-point     1 on d001
   Task     5 k-point     1 on d001
   Task     6 k-point     1 on d001
   Task     7 k-point     1 on d001
   Task     8 k-point     1 on d001
   Task     9 k-point     1 on d001
   Task    10 k-point     1 on d001
   Task    11 k-point     1 on d001
   Task    12 k-point     1 on d001
   Task    13 k-point     1 on d001
   Task    14 k-point     1 on d001
   Task    15 k-point     1 on d001
   Task    16 k-point     1 on d001
   Task    17 k-point     1 on d001
   Task    18 k-point     1 on d001
   Task    19 k-point     1 on d001
   Task    20 k-point     1 on d001
   Task    21 k-point     1 on d001
   Task    22 k-point     1 on d001
   Task    23 k-point     1 on d001
   Task    24 k-point     1 on d001
   Task    25 k-point     1 on d001
   Task    26 k-point     1 on d001
   Task    27 k-point     1 on d001
   Task    28 k-point     1 on d001
   Task    29 k-point     1 on d001
   Task    30 k-point     1 on d001
   Task    31 k-point     1 on d001
   Task    32 k-point     1 on d001
   Task    33 k-point     1 on d001
   Task    34 k-point     1 on d001
   Task    35 k-point     1 on d001
   Task    36 k-point     1 on d001
   Task    37 k-point     1 on d001
   Task    38 k-point     1 on d001
   Task    39 k-point     1 on d001
   Task    40 k-point     1 on d001
   Task    41 k-point     1 on d001
   Task    42 k-point     1 on d001
   Task    43 k-point     1 on d001
   Task    44 k-point     1 on d001
   Task    45 k-point     1 on d001
   Task    46 k-point     1 on d001
   Task    47 k-point     1 on d001
   Task    48 k-point     1 on d001
   Task    49 k-point     1 on d001
   Task    50 k-point     1 on d001
   Task    51 k-point     1 on d001
   Task    52 k-point     1 on d001
   Task    53 k-point     1 on d001
   Task    54 k-point     1 on d001
   Task    55 k-point     1 on d001
  Tasks:    56 split into      8 X      7 BLACS grid
  Calculating block size based on n_basis =          912 max_nprow =            8 max_npcol =            7
  ScaLAPACK block size set to:           16
  Allocating        0.147 MB for ovlp
  Allocating        0.147 MB for ham
  Allocating        0.147 MB for eigenvec
  Required Scalapack workspace - INTEGER:            1 REAL:             1
  Partitioning the integration grid into batches with parallel hashing+maxmin method.
  | Number of batches:     5454
  | Maximal batch size:     200
  | Minimal batch size:      32
  | Average batch size:      96.755
  | Standard deviation of batch sizes:      29.501

  Integration load balanced across     56 MPI tasks.
  Work distribution over tasks is as follows:
  Task      0 has       9536 integration points.
  Task      1 has       9461 integration points.
  Task      2 has       9357 integration points.
  Task      3 has       9559 integration points.
  Task      4 has       9352 integration points.
  Task      5 has       9526 integration points.
  Task      6 has       9311 integration points.
  Task      7 has       9503 integration points.
  Task      8 has       9498 integration points.
  Task      9 has       9316 integration points.
  Task     10 has       9482 integration points.
  Task     11 has       9365 integration points.
  Task     12 has       9400 integration points.
  Task     13 has       9325 integration points.
  Task     14 has       9495 integration points.
  Task     15 has       9506 integration points.
  Task     16 has       9331 integration points.
  Task     17 has       9584 integration points.
  Task     18 has       9362 integration points.
  Task     19 has       9491 integration points.
  Task     20 has       9292 integration points.
  Task     21 has       9512 integration points.
  Task     22 has       9428 integration points.
  Task     23 has       9336 integration points.
  Task     24 has       9492 integration points.
  Task     25 has       9353 integration points.
  Task     26 has       9479 integration points.
  Task     27 has       9274 integration points.
  Task     28 has       9524 integration points.
  Task     29 has       9526 integration points.
  Task     30 has       9333 integration points.
  Task     31 has       9482 integration points.
  Task     32 has       9353 integration points.
  Task     33 has       9446 integration points.
  Task     34 has       9336 integration points.
  Task     35 has       9425 integration points.
  Task     36 has       9482 integration points.
  Task     37 has       9346 integration points.
  Task     38 has       9488 integration points.
  Task     39 has       9419 integration points.
  Task     40 has       9427 integration points.
  Task     41 has       9331 integration points.
  Task     42 has       9444 integration points.
  Task     43 has       9429 integration points.
  Task     44 has       9424 integration points.
  Task     45 has       9567 integration points.
  Task     46 has       9383 integration points.
  Task     47 has       9419 integration points.
  Task     48 has       9298 integration points.
  Task     49 has       9469 integration points.
  Task     50 has       9419 integration points.
  Task     51 has       9358 integration points.
  Task     52 has       9450 integration points.
  Task     53 has       9386 integration points.
  Task     54 has       9479 integration points.
  Task     55 has       9335 integration points.
  Initializing partition tables, free-atom densities, potentials, etc. across the integration grid (initialize_grid_storage).
  | initialize_grid_storage: Actual outermost partition radius vs. multipole_radius_free
  | (-- VB: in principle, multipole_radius_free should be larger, hence this output)
  | Species        1: Confinement radius =              6.000000000000000 AA, multipole_radius_free =              6.071692442739658 AA.
  | Species        1: outer_partition_radius set to              6.071692442739658 AA .
  | Species        2: Confinement radius =              6.000000000000000 AA, multipole_radius_free =              6.029870734432609 AA.
  | Species        2: outer_partition_radius set to              6.029870734432609 AA .
  | The sparse table of interatomic distances needs     12.0360 kbyte instead of     8.1920 kbyte of memory.
  | Using the partition_type stratmann_smoother will reduce your memory usage.
  | Net number of integration points:   527704
  | of which are non-zero points    :   428246
  Renormalizing the initial density to the exact electron count on the 3D integration grid.
  | Initial density: Formal number of electrons (from input files) :     122.0000000000
  | Integrated number of electrons on 3D grid     :     121.9996273811
  | Charge integration error                      :      -0.0003726189
  | Normalization factor for density and gradient :       1.0000030543
  Obtaining max. number of non-zero basis functions in each batch (get_n_compute_maxes).
  | Maximal number of non-zero basis functions:      642
  Selecting the method for density update.
  Loop over occupied states selected for charge density update.
  Hamiltonian matrix size:
  | Size of matrix non-packed:                416328
  | Size of matrix packed:          365526
  Allocating        0.992 MB for KS_eigenvector
  use_local_index: Max. local matrix size =       287934
  Task:     0 matrix size:      74691
  Task:     1 matrix size:     178099
  Task:     2 matrix size:     154237
  Task:     3 matrix size:     286389
  Task:     4 matrix size:     287934
  Task:     5 matrix size:     241111
  Task:     6 matrix size:     278527
  Task:     7 matrix size:      56616
  Task:     8 matrix size:      92665
  Task:     9 matrix size:      77421
  Task:    10 matrix size:     180154
  Task:    11 matrix size:     218683
  Task:    12 matrix size:     240898
  Task:    13 matrix size:     236207
  Task:    14 matrix size:      90525
  Task:    15 matrix size:     166461
  Task:    16 matrix size:     134775
  Task:    17 matrix size:     271450
  Task:    18 matrix size:     209083
  Task:    19 matrix size:     286616
  Task:    20 matrix size:     251148
  Task:    21 matrix size:      91378
  Task:    22 matrix size:      61425
  Task:    23 matrix size:      88831
  Task:    24 matrix size:     275889
  Task:    25 matrix size:     254232
  Task:    26 matrix size:     265204
  Task:    27 matrix size:     240734
  Task:    28 matrix size:     243696
  Task:    29 matrix size:     260255
  Task:    30 matrix size:     267115
  Task:    31 matrix size:     116403
  Task:    32 matrix size:      60031
  Task:    33 matrix size:     112575
  Task:    34 matrix size:     123256
  Task:    35 matrix size:     271853
  Task:    36 matrix size:     219428
  Task:    37 matrix size:     270859
  Task:    38 matrix size:     185790
  Task:    39 matrix size:     206736
  Task:    40 matrix size:     135439
  Task:    41 matrix size:      85905
  Task:    42 matrix size:     240898
  Task:    43 matrix size:     231621
  Task:    44 matrix size:     200483
  Task:    45 matrix size:     121771
  Task:    46 matrix size:      70500
  Task:    47 matrix size:      98790
  Task:    48 matrix size:      70876
  Task:    49 matrix size:     239488
  Task:    50 matrix size:     278046
  Task:    51 matrix size:     274378
  Task:    52 matrix size:     195319
  Task:    53 matrix size:     205542
  Task:    54 matrix size:     123256
  Task:    55 matrix size:     127260
  Integrating Hamiltonian matrix: batch-based integration.
  Time summed over all CPUs for integration: real work       61.336 s, elapsed       98.460 s
  Time get_set_sparse_local_matrix_scalapack:     0.008070 s
  Start compute_balanced_batch_distribution
  Done load balancing, time needed:      0.005 s
  Integrating overlap matrix with loadbalancing
  Time summed over all CPUs for integration: real work       16.962 s, elapsed       19.844 s
  Time get_set_full_local_matrix_scalapack:     0.006846 s

  Updating Kohn-Sham eigenvalues and eigenvectors using ELSI and the ELPA eigensolver.
  Overlap matrix is not singular
  | Lowest and highest eigenvalues :  0.10E+02,  0.76E-04
  Finished singularity check of overlap matrix
  | Time :     0.049 s
  Finished Cholesky decomposition
  | Time :     0.011 s
  Finished transformation to standard eigenproblem
  | Time :     0.006 s
  Starting ELPA eigensolver
  Finished solving standard eigenproblem
  | Time :     0.043 s
  Finished back-transformation of eigenvectors
  | Time :     0.002 s

  Obtaining occupation numbers and chemical potential using ELSI.
  | Chemical potential (Fermi level):    -6.81747355 eV
  Writing Kohn-Sham eigenvalues.

  State    Occupation    Eigenvalue [Ha]    Eigenvalue [eV]
      1       2.00000         -10.176644         -276.92057
      2       2.00000         -10.176631         -276.92022
      3       2.00000         -10.175626         -276.89286
      4       2.00000         -10.175608         -276.89239
      5       2.00000         -10.175568         -276.89130
      6       2.00000         -10.175568         -276.89130
      7       2.00000         -10.173844         -276.84439
      8       2.00000         -10.173844         -276.84439
      9       2.00000         -10.172611         -276.81082
     10       2.00000         -10.172610         -276.81081
     11       2.00000         -10.172442         -276.80623
     12       2.00000         -10.172438         -276.80612
     13       2.00000         -10.171671         -276.78526
     14       2.00000         -10.171671         -276.78526
     15       2.00000         -10.169328         -276.72148
     16       2.00000         -10.169328         -276.72148
     17       2.00000         -10.165154         -276.60790
     18       2.00000         -10.165154         -276.60790
     19       2.00000          -1.018711          -27.72053
     20       2.00000          -1.000985          -27.23820
     21       2.00000          -0.993322          -27.02966
     22       2.00000          -0.932403          -25.37199
     23       2.00000          -0.896101          -24.38415
     24       2.00000          -0.893301          -24.30795
     25       2.00000          -0.885566          -24.09748
     26       2.00000          -0.881678          -23.99169
     27       2.00000          -0.867141          -23.59612
     28       2.00000          -0.780496          -21.23837
     29       2.00000          -0.774913          -21.08646
     30       2.00000          -0.751884          -20.45980
     31       2.00000          -0.745883          -20.29651
     32       2.00000          -0.730816          -19.88653
     33       2.00000          -0.726746          -19.77577
     34       2.00000          -0.682821          -18.58052
     35       2.00000          -0.662364          -18.02385
     36       2.00000          -0.653681          -17.78758
     37       2.00000          -0.626181          -17.03925
     38       2.00000          -0.624360          -16.98969
     39       2.00000          -0.609872          -16.59546
     40       2.00000          -0.602464          -16.39387
     41       2.00000          -0.583834          -15.88693
     42       2.00000          -0.581164          -15.81426
     43       2.00000          -0.573601          -15.60847
     44       2.00000          -0.566265          -15.40886
     45       2.00000          -0.565094          -15.37699
     46       2.00000          -0.553784          -15.06923
     47       2.00000          -0.535479          -14.57112
     48       2.00000          -0.530488          -14.43531
     49       2.00000          -0.512487          -13.94549
     50       2.00000          -0.511848          -13.92810
     51       2.00000          -0.505951          -13.76762
     52       2.00000          -0.500605          -13.62214
     53       2.00000          -0.497587          -13.54004
     54       2.00000          -0.496681          -13.51536
     55       2.00000          -0.483433          -13.15488
     56       2.00000          -0.446523          -12.15050
     57       2.00000          -0.407314          -11.08357
     58       2.00000          -0.407252          -11.08189
     59       2.00000          -0.402373          -10.94912
     60       2.00000          -0.400580          -10.90033
     61       2.00000          -0.374641          -10.19450
     62       0.00000          -0.246005           -6.69413
     63       0.00000          -0.221133           -6.01733
     64       0.00000          -0.210874           -5.73816
     65       0.00000          -0.205518           -5.59244
     66       0.00000          -0.201428           -5.48114
     67       0.00000          -0.158582           -4.31524
     68       0.00000          -0.086183           -2.34517
     69       0.00000          -0.077894           -2.11961
     70       0.00000          -0.071381           -1.94239
     71       0.00000          -0.061489           -1.67321
     72       0.00000          -0.058162           -1.58266
     73       0.00000          -0.051658           -1.40569
     74       0.00000          -0.040152           -1.09260
     75       0.00000          -0.030634           -0.83359
     76       0.00000          -0.021556           -0.58657
     77       0.00000          -0.017573           -0.47819
     78       0.00000          -0.016895           -0.45974
     79       0.00000          -0.015749           -0.42854
     80       0.00000          -0.008623           -0.23465
     81       0.00000           0.000870            0.02368
     82       0.00000           0.007326            0.19936
     83       0.00000           0.014113            0.38404
     84       0.00000           0.018335            0.49891
     85       0.00000           0.029772            0.81015
     86       0.00000           0.032617            0.88754
     87       0.00000           0.036728            0.99941
     88       0.00000           0.037268            1.01411
     89       0.00000           0.038759            1.05470
     90       0.00000           0.043413            1.18134
     91       0.00000           0.058729            1.59809
     92       0.00000           0.059186            1.61054
     93       0.00000           0.062576            1.70278
     94       0.00000           0.064243            1.74813
     95       0.00000           0.070108            1.90774
     96       0.00000           0.074174            2.01837
     97       0.00000           0.079845            2.17269
     98       0.00000           0.080132            2.18051
     99       0.00000           0.080990            2.20385
    100       0.00000           0.095153            2.58924
    101       0.00000           0.096395            2.62305
    102       0.00000           0.100111            2.72416
    103       0.00000           0.100811            2.74322
    104       0.00000           0.103812            2.82487
    105       0.00000           0.106813            2.90652
    106       0.00000           0.119184            3.24316
    107       0.00000           0.120885            3.28945
    108       0.00000           0.125995            3.42851
    109       0.00000           0.128095            3.48564
    110       0.00000           0.131930            3.58998
    111       0.00000           0.132988            3.61878
    112       0.00000           0.135436            3.68539
    113       0.00000           0.148040            4.02837
    114       0.00000           0.149197            4.05986
    115       0.00000           0.156961            4.27113
    116       0.00000           0.160198            4.35920
    117       0.00000           0.162271            4.41563
    118       0.00000           0.163093            4.43798
    119       0.00000           0.175700            4.78104
    120       0.00000           0.178858            4.86697
    121       0.00000           0.180659            4.91599
    122       0.00000           0.184885            5.03098
    123       0.00000           0.187030            5.08935
    124       0.00000           0.193602            5.26817
    125       0.00000           0.199479            5.42809
    126       0.00000           0.203129            5.52741
    127       0.00000           0.203679            5.54239
    128       0.00000           0.210332            5.72343
    129       0.00000           0.215656            5.86831
    130       0.00000           0.216925            5.90283
    131       0.00000           0.217223            5.91094
    132       0.00000           0.219993            5.98631
    133       0.00000           0.227554            6.19207
    134       0.00000           0.236567            6.43731
    135       0.00000           0.237614            6.46582
    136       0.00000           0.237632            6.46629

  Highest occupied state (VBM) at    -10.19450381 eV
  | Occupation number:      2.00000000

  Lowest unoccupied state (CBM) at    -6.69413499 eV
  | Occupation number:      0.00000000

  Overall HOMO-LUMO gap:      3.50036883 eV.
  Calculating total energy contributions from superposition of free atom densities.

  Total energy components:
  | Sum of eigenvalues            :        -421.76882514 Ha      -11476.91367104 eV
  | XC energy correction          :        -100.18584296 Ha       -2726.19549417 eV
  | XC potential correction       :         128.68771627 Ha        3501.77092786 eV
  | Free-atom electrostatic energy:        -301.71542244 Ha       -8210.09436950 eV
  | Hartree energy correction     :           0.00000000 Ha           0.00000000 eV
  | Entropy correction            :           0.00000000 Ha           0.00000000 eV
  | ---------------------------
  | Total energy                  :        -694.98237427 Ha      -18911.43260686 eV
  | Total energy, T -> 0          :        -694.98237427 Ha      -18911.43260686 eV  <-- do not rely on this value for anything but (periodic) metals
  | Electronic free energy        :        -694.98237427 Ha      -18911.43260686 eV

  Derived energy quantities:
  | Kinetic energy                :         687.67995029 Ha       18712.72354035 eV
  | Electrostatic energy          :       -1282.47648160 Ha      -34897.96065303 eV
  | Energy correction for multipole
  | error in Hartree potential    :           0.00000000 Ha           0.00000000 eV
  | Sum of eigenvalues per atom                           :        -358.65355222 eV
  | Total energy (T->0) per atom                          :        -590.98226896 eV  <-- do not rely on this value for anything but (periodic) metals
  | Electronic free energy per atom                       :        -590.98226896 eV
  Initialize hartree_potential_storage
  Max. number of atoms included in rho_multipole:           32

  End scf initialization - timings             :  max(cpu_time)    wall_clock(cpu1)
  | Time for scf. initialization               :        2.963 s           3.020 s
  | Boundary condition initialization          :        0.000 s           0.004 s
  | Integration                                :        2.139 s           2.145 s
  | Solution of K.-S. eqns.                    :        0.115 s           0.131 s
  | Grid partitioning                          :        0.365 s           0.369 s
  | Preloading free-atom quantities on grid    :        0.014 s           0.015 s
  | Free-atom superposition energy             :        0.032 s           0.033 s
  | Total energy evaluation                    :        0.001 s           0.004 s

  Partial memory accounting:
  | Current value for overall tracked memory usage on task 0  :           1.734 MB
  | Peak value for overall tracked memory usage on task 0     :          14.889 MB after allocating zora_vector2
  | Largest tracked array allocation on task 0 so far         :           3.297 MB  when allocating hamiltonian_shell
  Note:  These values currently only include a subset of arrays which are explicitly tracked.
  The "true" memory usage will be greater.
------------------------------------------------------------

------------------------------------------------------------
          Begin self-consistency iteration #    1

  Date     :  20210620, Time     :  174918.434
------------------------------------------------------------
  Evaluating new KS density.
  Integration grid: deviation in total charge (<rho> - N_e) =  -1.421085E-14
  Pulay mixing of updated and previous charge densities.

  Evaluating partitioned Hartree potential by multipole expansion.
  | Analytical far-field extrapolation by fixed multipoles:
  | Hartree multipole sum: apparent total charge =  -0.378485E-03
  Summing up the Hartree potential with load balancing.
  Time summed over all CPUs for potential: real work       11.831 s, elapsed       17.371 s
  | RMS charge density error from multipole expansion :   0.104303E-01

  Start compute_balanced_batch_distribution
  Done load balancing, time needed:      0.004 s
  Integrating Hamiltonian matrix: batch-based integration with load balancing
  Time summed over all CPUs for integration: real work       65.939 s, elapsed       73.564 s
  Time get_set_full_local_matrix_scalapack:     0.007053 s
  Start compute_balanced_batch_distribution
  Done load balancing, time needed:      0.004 s

  Updating Kohn-Sham eigenvalues and eigenvectors using ELSI and the ELPA eigensolver.
  Finished transformation to standard eigenproblem
  | Time :     0.006 s
  Starting ELPA eigensolver
  Finished solving standard eigenproblem
  | Time :     0.041 s
  Finished back-transformation of eigenvectors
  | Time :     0.002 s

  Obtaining occupation numbers and chemical potential using ELSI.
  | Chemical potential (Fermi level):    -4.28319928 eV
  Writing Kohn-Sham eigenvalues.

  State    Occupation    Eigenvalue [Ha]    Eigenvalue [eV]
      1       2.00000          -9.973976         -271.40571
      2       2.00000          -9.973976         -271.40570
      3       2.00000          -9.968704         -271.26225
      4       2.00000          -9.968704         -271.26224
      5       2.00000          -9.948626         -270.71589
      6       2.00000          -9.948626         -270.71589
      7       2.00000          -9.945376         -270.62745
      8       2.00000          -9.945374         -270.62739
      9       2.00000          -9.944546         -270.60485
     10       2.00000          -9.944545         -270.60485
     11       2.00000          -9.943770         -270.58376
     12       2.00000          -9.943769         -270.58372
     13       2.00000          -9.943051         -270.56418
     14       2.00000          -9.943051         -270.56418
     15       2.00000          -9.940123         -270.48451
     16       2.00000          -9.940123         -270.48450
     17       2.00000          -9.936571         -270.38786
     18       2.00000          -9.936571         -270.38786
     19       2.00000          -0.859221          -23.38060
     20       2.00000          -0.840927          -22.88280
     21       2.00000          -0.827900          -22.52831
     22       2.00000          -0.778284          -21.17820
     23       2.00000          -0.742606          -20.20735
     24       2.00000          -0.740932          -20.16179
     25       2.00000          -0.733820          -19.96827
     26       2.00000          -0.727650          -19.80037
     27       2.00000          -0.706713          -19.23063
     28       2.00000          -0.633522          -17.23901
     29       2.00000          -0.631896          -17.19476
     30       2.00000          -0.608601          -16.56088
     31       2.00000          -0.599263          -16.30678
     32       2.00000          -0.584892          -15.91573
     33       2.00000          -0.580563          -15.79794
     34       2.00000          -0.551130          -14.99702
     35       2.00000          -0.528956          -14.39361
     36       2.00000          -0.491601          -13.37714
     37       2.00000          -0.490463          -13.34617
     38       2.00000          -0.489452          -13.31866
     39       2.00000          -0.463379          -12.60918
     40       2.00000          -0.461914          -12.56931
     41       2.00000          -0.449992          -12.24490
     42       2.00000          -0.443507          -12.06844
     43       2.00000          -0.441976          -12.02678
     44       2.00000          -0.436925          -11.88934
     45       2.00000          -0.432001          -11.75534
     46       2.00000          -0.416075          -11.32199
     47       2.00000          -0.402488          -10.95226
     48       2.00000          -0.390167          -10.61698
     49       2.00000          -0.383796          -10.44362
     50       2.00000          -0.383172          -10.42665
     51       2.00000          -0.365086           -9.93450
     52       2.00000          -0.363920           -9.90276
     53       2.00000          -0.363223           -9.88381
     54       2.00000          -0.355575           -9.67568
     55       2.00000          -0.347663           -9.46040
     56       2.00000          -0.317063           -8.62773
     57       2.00000          -0.276949           -7.53617
     58       2.00000          -0.276407           -7.52143
     59       2.00000          -0.272117           -7.40468
     60       2.00000          -0.268498           -7.30620
     61       2.00000          -0.240541           -6.54546
     62       0.00000          -0.119788           -3.25959
     63       0.00000          -0.098094           -2.66928
     64       0.00000          -0.084656           -2.30360
     65       0.00000          -0.078697           -2.14145
     66       0.00000          -0.069570           -1.89309
     67       0.00000          -0.032284           -0.87849
     68       0.00000          -0.029865           -0.81267
     69       0.00000          -0.024688           -0.67179
     70       0.00000          -0.018009           -0.49004
     71       0.00000          -0.011470           -0.31211
     72       0.00000          -0.002809           -0.07643
     73       0.00000           0.006589            0.17930
     74       0.00000           0.014998            0.40813
     75       0.00000           0.028048            0.76321
     76       0.00000           0.029592            0.80524
     77       0.00000           0.037107            1.00973
     78       0.00000           0.045595            1.24070
     79       0.00000           0.055017            1.49709
     80       0.00000           0.064967            1.76783
     81       0.00000           0.072758            1.97986
     82       0.00000           0.074038            2.01467
     83       0.00000           0.080300            2.18507
     84       0.00000           0.083830            2.28113
     85       0.00000           0.094152            2.56201
     86       0.00000           0.101094            2.75090
     87       0.00000           0.105850            2.88031
     88       0.00000           0.107898            2.93605
     89       0.00000           0.115227            3.13550
     90       0.00000           0.118640            3.22837
     91       0.00000           0.120104            3.26820
     92       0.00000           0.125033            3.40232
     93       0.00000           0.126201            3.43410
     94       0.00000           0.127783            3.47716
     95       0.00000           0.133691            3.63793
     96       0.00000           0.135190            3.67871
     97       0.00000           0.145552            3.96067
     98       0.00000           0.146905            3.99748
     99       0.00000           0.150204            4.08725
    100       0.00000           0.152898            4.16057
    101       0.00000           0.157599            4.28848
    102       0.00000           0.167357            4.55401
    103       0.00000           0.169869            4.62238
    104       0.00000           0.175360            4.77178
    105       0.00000           0.178939            4.86918
    106       0.00000           0.180920            4.92308
    107       0.00000           0.187559            5.10374
    108       0.00000           0.189710            5.16228
    109       0.00000           0.199173            5.41977
    110       0.00000           0.199879            5.43899
    111       0.00000           0.206839            5.62838
    112       0.00000           0.210273            5.72181
    113       0.00000           0.214754            5.84374
    114       0.00000           0.219801            5.98109
    115       0.00000           0.219962            5.98547
    116       0.00000           0.225441            6.13456
    117       0.00000           0.226528            6.16413
    118       0.00000           0.231414            6.29710
    119       0.00000           0.243982            6.63908
    120       0.00000           0.250271            6.81021
    121       0.00000           0.255294            6.94692
    122       0.00000           0.259836            7.07050
    123       0.00000           0.260702            7.09407
    124       0.00000           0.263199            7.16201
    125       0.00000           0.267139            7.26923
    126       0.00000           0.267906            7.29009
    127       0.00000           0.268896            7.31703
    128       0.00000           0.274191            7.46112
    129       0.00000           0.281946            7.67215
    130       0.00000           0.286744            7.80270
    131       0.00000           0.290697            7.91026
    132       0.00000           0.304136            8.27595
    133       0.00000           0.304773            8.29329
    134       0.00000           0.317793            8.64758
    135       0.00000           0.324218            8.82242
    136       0.00000           0.325378            8.85397

  Highest occupied state (VBM) at     -6.54546331 eV
  | Occupation number:      2.00000000

  Lowest unoccupied state (CBM) at    -3.25958949 eV
  | Occupation number:      0.00000000

  Overall HOMO-LUMO gap:      3.28587381 eV.

  Total energy components:
  | Sum of eigenvalues            :        -401.58062779 Ha      -10927.56487056 eV
  | XC energy correction          :        -101.62391432 Ha       -2765.32740699 eV
  | XC potential correction       :         130.55456680 Ha        3552.57051556 eV
  | Free-atom electrostatic energy:        -301.71542244 Ha       -8210.09436950 eV
  | Hartree energy correction     :         -19.91008723 Ha        -541.78103898 eV
  | Entropy correction            :           0.00000000 Ha           0.00000000 eV
  | ---------------------------
  | Total energy                  :        -694.27548497 Ha      -18892.19717047 eV
  | Total energy, T -> 0          :        -694.27548497 Ha      -18892.19717047 eV  <-- do not rely on this value for anything but (periodic) metals
  | Electronic free energy        :        -694.27548497 Ha      -18892.19717047 eV

  Derived energy quantities:
  | Kinetic energy                :         694.32265264 Ha       18893.48066794 eV
  | Electrostatic energy          :       -1286.97422329 Ha      -35020.35043142 eV
  | Energy correction for multipole
  | error in Hartree potential    :          -0.04420040 Ha          -1.20275397 eV
  | Sum of eigenvalues per atom                           :        -341.48640221 eV
  | Total energy (T->0) per atom                          :        -590.38116158 eV  <-- do not rely on this value for anything but (periodic) metals
  | Electronic free energy per atom                       :        -590.38116158 eV

  Self-consistency convergence accuracy:
  | Change of charge density      :  0.8867E+00
  | Change of sum of eigenvalues  :  0.5493E+03 eV
  | Change of total energy        :  0.1924E+02 eV

  End self-consistency iteration #     1       :  max(cpu_time)    wall_clock(cpu1)
  | Time for this iteration                    :        2.199 s           2.205 s
  | Charge density update                      :        0.476 s           0.477 s
  | Density mixing                             :        0.002 s           0.003 s
  | Hartree multipole update                   :        0.007 s           0.008 s
  | Hartree multipole summation                :        0.317 s           0.320 s
  | Integration                                :        1.317 s           1.316 s
  | Solution of K.-S. eqns.                    :        0.069 s           0.069 s
  | Total energy evaluation                    :        0.000 s           0.000 s

  Partial memory accounting:
  | Current value for overall tracked memory usage on task 0  :           1.734 MB
  | Peak value for overall tracked memory usage on task 0     :          15.254 MB after allocating zora_vector2
  | Largest tracked array allocation on task 0 so far         :           3.297 MB  when allocating hamiltonian_shell
  Note:  These values currently only include a subset of arrays which are explicitly tracked.
  The "true" memory usage will be greater.
------------------------------------------------------------

------------------------------------------------------------
          Begin self-consistency iteration #    2

  Date     :  20210620, Time     :  174920.640
------------------------------------------------------------
  Evaluating new KS density.
  Integration grid: deviation in total charge (<rho> - N_e) =   1.421085E-13
  Pulay mixing of updated and previous charge densities.

  Evaluating partitioned Hartree potential by multipole expansion.
  | Analytical far-field extrapolation by fixed multipoles:
  | Hartree multipole sum: apparent total charge =  -0.377619E-03
  Summing up the Hartree potential with load balancing.
  Time summed over all CPUs for potential: real work       11.973 s, elapsed       13.785 s
  | RMS charge density error from multipole expansion :   0.180336E-01

  Integrating Hamiltonian matrix: batch-based integration with load balancing
  Time summed over all CPUs for integration: real work       67.407 s, elapsed       69.613 s
  Time get_set_full_local_matrix_scalapack:     0.009118 s

  Updating Kohn-Sham eigenvalues and eigenvectors using ELSI and the ELPA eigensolver.
  Finished transformation to standard eigenproblem
  | Time :     0.006 s
  Starting ELPA eigensolver
  Finished solving standard eigenproblem
  | Time :     0.042 s
  Finished back-transformation of eigenvectors
  | Time :     0.002 s

  Obtaining occupation numbers and chemical potential using ELSI.
  | Chemical potential (Fermi level):    -3.60678456 eV
  Highest occupied state (VBM) at     -5.53788955 eV
  | Occupation number:      2.00000000

  Lowest unoccupied state (CBM) at    -2.25552130 eV
  | Occupation number:      0.00000000

  Overall HOMO-LUMO gap:      3.28236826 eV.

  Checking to see if s.c.f. parameters should be adjusted.

  Total energy components:
  | Sum of eigenvalues            :        -395.66493483 Ha      -10766.59067472 eV
  | XC energy correction          :        -102.20310855 Ha       -2781.08808388 eV
  | XC potential correction       :         131.29822367 Ha        3572.80644851 eV
  | Free-atom electrostatic energy:        -301.71542244 Ha       -8210.09436950 eV
  | Hartree energy correction     :         -25.90515065 Ha        -704.91501491 eV
  | Entropy correction            :           0.00000000 Ha           0.00000000 eV
  | ---------------------------
  | Total energy                  :        -694.19039279 Ha      -18889.88169449 eV
  | Total energy, T -> 0          :        -694.19039279 Ha      -18889.88169449 eV  <-- do not rely on this value for anything but (periodic) metals
  | Electronic free energy        :        -694.19039279 Ha      -18889.88169449 eV

  Derived energy quantities:
  | Kinetic energy                :         694.36953022 Ha       18894.75627186 eV
  | Electrostatic energy          :       -1286.35681446 Ha      -35003.54988248 eV
  | Energy correction for multipole
  | error in Hartree potential    :          -0.06979096 Ha          -1.89910864 eV
  | Sum of eigenvalues per atom                           :        -336.45595858 eV
  | Total energy (T->0) per atom                          :        -590.30880295 eV  <-- do not rely on this value for anything but (periodic) metals
  | Electronic free energy per atom                       :        -590.30880295 eV

  Self-consistency convergence accuracy:
  | Change of charge density      :  0.4313E+00
  | Change of sum of eigenvalues  :  0.1610E+03 eV
  | Change of total energy        :  0.2315E+01 eV

  End self-consistency iteration #     2       :  max(cpu_time)    wall_clock(cpu1)
  | Time for this iteration                    :        2.054 s           2.057 s
  | Charge density update                      :        0.474 s           0.473 s
  | Density mixing                             :        0.003 s           0.004 s
  | Hartree multipole update                   :        0.007 s           0.007 s
  | Hartree multipole summation                :        0.248 s           0.249 s
  | Integration                                :        1.246 s           1.245 s
  | Solution of K.-S. eqns.                    :        0.071 s           0.072 s
  | Total energy evaluation                    :        0.002 s           0.003 s

  Partial memory accounting:
  | Current value for overall tracked memory usage on task 0  :           1.734 MB
  | Peak value for overall tracked memory usage on task 0     :          15.278 MB after allocating zora_vector2
  | Largest tracked array allocation on task 0 so far         :           3.297 MB  when allocating hamiltonian_shell
  Note:  These values currently only include a subset of arrays which are explicitly tracked.
  The "true" memory usage will be greater.
------------------------------------------------------------

------------------------------------------------------------
          Begin self-consistency iteration #    3

  Date     :  20210620, Time     :  174922.700
------------------------------------------------------------
  Evaluating new KS density.
  Integration grid: deviation in total charge (<rho> - N_e) =   8.526513E-14
  Pulay mixing of updated and previous charge densities.

  Evaluating partitioned Hartree potential by multipole expansion.
  | Analytical far-field extrapolation by fixed multipoles:
  | Hartree multipole sum: apparent total charge =  -0.376541E-03
  Summing up the Hartree potential with load balancing.
  Time summed over all CPUs for potential: real work       11.964 s, elapsed       13.721 s
  | RMS charge density error from multipole expansion :   0.219483E-01

  Integrating Hamiltonian matrix: batch-based integration with load balancing
  Time summed over all CPUs for integration: real work       67.134 s, elapsed       69.468 s
  Time get_set_full_local_matrix_scalapack:     0.009052 s

  Updating Kohn-Sham eigenvalues and eigenvectors using ELSI and the ELPA eigensolver.
  Finished transformation to standard eigenproblem
  | Time :     0.005 s
  Starting ELPA eigensolver
  Finished solving standard eigenproblem
  | Time :     0.041 s
  Finished back-transformation of eigenvectors
  | Time :     0.002 s

  Obtaining occupation numbers and chemical potential using ELSI.
  | Chemical potential (Fermi level):    -3.46212616 eV
  Highest occupied state (VBM) at     -5.50109826 eV
  | Occupation number:      2.00000000

  Lowest unoccupied state (CBM) at    -2.20485389 eV
  | Occupation number:      0.00000000

  Overall HOMO-LUMO gap:      3.29624437 eV.

  Total energy components:
  | Sum of eigenvalues            :        -395.16144844 Ha      -10752.89011321 eV
  | XC energy correction          :        -102.31795964 Ha       -2784.21334105 eV
  | XC potential correction       :         131.44206687 Ha        3576.72062116 eV
  | Free-atom electrostatic energy:        -301.71542244 Ha       -8210.09436950 eV
  | Hartree energy correction     :         -26.43218198 Ha        -719.25626708 eV
  | Entropy correction            :           0.00000000 Ha           0.00000000 eV
  | ---------------------------
  | Total energy                  :        -694.18494563 Ha      -18889.73346968 eV
  | Total energy, T -> 0          :        -694.18494563 Ha      -18889.73346968 eV  <-- do not rely on this value for anything but (periodic) metals
  | Electronic free energy        :        -694.18494563 Ha      -18889.73346968 eV

  Derived energy quantities:
  | Kinetic energy                :         692.97446540 Ha       18856.79462679 eV
  | Electrostatic energy          :       -1284.84145139 Ha      -34962.31475542 eV
  | Energy correction for multipole
  | error in Hartree potential    :          -0.07999573 Ha          -2.17679452 eV
  | Sum of eigenvalues per atom                           :        -336.02781604 eV
  | Total energy (T->0) per atom                          :        -590.30417093 eV  <-- do not rely on this value for anything but (periodic) metals
  | Electronic free energy per atom                       :        -590.30417093 eV

  Self-consistency convergence accuracy:
  | Change of charge density      :  0.1588E+00
  | Change of sum of eigenvalues  :  0.1370E+02 eV
  | Change of total energy        :  0.1482E+00 eV

  End self-consistency iteration #     3       :  max(cpu_time)    wall_clock(cpu1)
  | Time for this iteration                    :        2.050 s           2.047 s
  | Charge density update                      :        0.479 s           0.476 s
  | Density mixing                             :        0.004 s           0.004 s
  | Hartree multipole update                   :        0.007 s           0.007 s
  | Hartree multipole summation                :        0.247 s           0.247 s
  | Integration                                :        1.242 s           1.243 s
  | Solution of K.-S. eqns.                    :        0.067 s           0.067 s
  | Total energy evaluation                    :        0.000 s           0.002 s

  Partial memory accounting:
  | Current value for overall tracked memory usage on task 0  :           1.734 MB
  | Peak value for overall tracked memory usage on task 0     :          15.278 MB after allocating zora_vector2
  | Largest tracked array allocation on task 0 so far         :           3.297 MB  when allocating hamiltonian_shell
  Note:  These values currently only include a subset of arrays which are explicitly tracked.
  The "true" memory usage will be greater.
------------------------------------------------------------

------------------------------------------------------------
          Begin self-consistency iteration #    4

  Date     :  20210620, Time     :  174924.750
------------------------------------------------------------
  Evaluating new KS density.
[...]
  | Current value for overall tracked memory usage on task 0  :           1.735 MB
  | Peak value for overall tracked memory usage on task 0     :          15.278 MB after allocating zora_vector2
  | Largest tracked array allocation on task 0 so far         :           3.297 MB  when allocating hamiltonian_shell
  Note:  These values currently only include a subset of arrays which are explicitly tracked.
  The "true" memory usage will be greater.
------------------------------------------------------------
  |------------------------------------------------------
  | Final ELSI Output
  |------------------------------------------------------
  |
  | Physical Properties
  |   Number of electrons       :        0.12200000E+03
  |   Number of spins           :                     1
  |   Number of k-points        :                     1
  |   Number of states          :                   136
  |
  | Matrix Properties
  |   Matrix format             :           BLACS_DENSE
  |   Number of basis functions :                   912
  |   Matrix sparsity           :        0.13252155E+00
  |
  | Computational Details
  |   Parallel mode             :            MULTI_PROC
  |   Number of MPI tasks       :                    56
  |   Solver requested          :                  ELPA
  |   Number of ELSI calls      :                    16
  |
  |------------------------------------------------------
  | ELSI Project (c)  elsi-interchange.org
  |------------------------------------------------------

------------------------------------------------------------
          Post-processing: scaled ZORA corrections to eigenvalues and total energy.

  Date     :  20210620, Time     :  174949.418
------------------------------------------------------------
  Computing correction matrix for scaled ZORA eigenvalues.
  Evaluating scaled zora correction for each Kohn-Sham eigenstate.
  Evaluating scaled zora correction for each Kohn-Sham eigenstate.
  Time get_set_sparse_local_matrix_scalapack:     1.265311 s
  Writing Kohn-Sham eigenvalues.

  State    Occupation    Eigenvalue [Ha]    Eigenvalue [eV]
      1       2.00000          -9.907698         -269.60218
      2       2.00000          -9.907698         -269.60218
      3       2.00000          -9.901891         -269.44416
      4       2.00000          -9.901890         -269.44415
      5       2.00000          -9.895941         -269.28226
      6       2.00000          -9.895941         -269.28226
      7       2.00000          -9.895171         -269.26131
      8       2.00000          -9.895171         -269.26131
      9       2.00000          -9.894073         -269.23143
     10       2.00000          -9.894073         -269.23142
     11       2.00000          -9.893627         -269.21929
     12       2.00000          -9.893627         -269.21929
     13       2.00000          -9.891700         -269.16684
     14       2.00000          -9.891700         -269.16684
     15       2.00000          -9.891615         -269.16454
     16       2.00000          -9.891609         -269.16437
     17       2.00000          -9.890694         -269.13947
     18       2.00000          -9.890688         -269.13932
     19       2.00000          -0.808407          -21.99789
     20       2.00000          -0.792237          -21.55788
     21       2.00000          -0.779722          -21.21732
     22       2.00000          -0.726135          -19.75915
     23       2.00000          -0.688934          -18.74686
     24       2.00000          -0.687390          -18.70483
     25       2.00000          -0.680458          -18.51620
     26       2.00000          -0.673416          -18.32457
     27       2.00000          -0.653028          -17.76980
     28       2.00000          -0.576440          -15.68572
     29       2.00000          -0.574684          -15.63796
     30       2.00000          -0.550999          -14.99343
     31       2.00000          -0.542006          -14.74873
     32       2.00000          -0.525597          -14.30223
     33       2.00000          -0.521129          -14.18064
     34       2.00000          -0.494654          -13.46021
     35       2.00000          -0.473255          -12.87793
     36       2.00000          -0.433492          -11.79592
     37       2.00000          -0.431912          -11.75293
     38       2.00000          -0.427099          -11.62196
     39       2.00000          -0.404024          -10.99405
     40       2.00000          -0.402720          -10.95857
     41       2.00000          -0.386624          -10.52057
     42       2.00000          -0.384760          -10.46986
     43       2.00000          -0.383812          -10.44407
     44       2.00000          -0.379896          -10.33751
     45       2.00000          -0.374853          -10.20027
     46       2.00000          -0.364476           -9.91789
     47       2.00000          -0.356873           -9.71100
     48       2.00000          -0.346694           -9.43401
     49       2.00000          -0.331184           -9.01198
     50       2.00000          -0.327267           -8.90539
     51       2.00000          -0.321859           -8.75822
     52       2.00000          -0.304645           -8.28982
     53       2.00000          -0.303099           -8.24775
     54       2.00000          -0.295934           -8.05277
     55       2.00000          -0.283944           -7.72651
     56       2.00000          -0.278710           -7.58409
     57       2.00000          -0.237960           -6.47521
     58       2.00000          -0.237849           -6.47220
     59       2.00000          -0.233890           -6.36447
     60       2.00000          -0.229171           -6.23606
     61       2.00000          -0.200435           -5.45410
     62       0.00000          -0.079601           -2.16606
     63       0.00000          -0.058853           -1.60146
     64       0.00000          -0.045169           -1.22912
     65       0.00000          -0.038730           -1.05389
     66       0.00000          -0.027739           -0.75481
     67       0.00000          -0.009214           -0.25074
     68       0.00000          -0.002683           -0.07300
     69       0.00000           0.005100            0.13878
     70       0.00000           0.010133            0.27573
     71       0.00000           0.011035            0.30027
     72       0.00000           0.018213            0.49560
     73       0.00000           0.028222            0.76797
     74       0.00000           0.035023            0.95303
     75       0.00000           0.049077            1.33545
     76       0.00000           0.053064            1.44395
     77       0.00000           0.067594            1.83933
     78       0.00000           0.076987            2.09493
     79       0.00000           0.079414            2.16096
     80       0.00000           0.088995            2.42167
     81       0.00000           0.094029            2.55866
     82       0.00000           0.099485            2.70712
     83       0.00000           0.104443            2.84204
     84       0.00000           0.114078            3.10421
     85       0.00000           0.122199            3.32519
     86       0.00000           0.122879            3.34372
     87       0.00000           0.133656            3.63696
     88       0.00000           0.134808            3.66832
     89       0.00000           0.141398            3.84763
     90       0.00000           0.143583            3.90709
     91       0.00000           0.146168            3.97744
     92       0.00000           0.155719            4.23733
     93       0.00000           0.158902            4.32394
     94       0.00000           0.159898            4.35104
     95       0.00000           0.162868            4.43188
     96       0.00000           0.163553            4.45051
     97       0.00000           0.172136            4.68406
     98       0.00000           0.177210            4.82214
     99       0.00000           0.182530            4.96690
    100       0.00000           0.186023            5.06194
    101       0.00000           0.190020            5.17071
    102       0.00000           0.192239            5.23108
    103       0.00000           0.198516            5.40190
    104       0.00000           0.201493            5.48290
    105       0.00000           0.209017            5.68765
    106       0.00000           0.214469            5.83600
    107       0.00000           0.216607            5.89417
    108       0.00000           0.217331            5.91387
    109       0.00000           0.220735            6.00650
    110       0.00000           0.228744            6.22444
    111       0.00000           0.243262            6.61951
    112       0.00000           0.244988            6.66647
    113       0.00000           0.246864            6.71751
    114       0.00000           0.248437            6.76033
    115       0.00000           0.250275            6.81033
    116       0.00000           0.258419            7.03195
    117       0.00000           0.260896            7.09933
    118       0.00000           0.265799            7.23277
    119       0.00000           0.273686            7.44737
    120       0.00000           0.273748            7.44905
    121       0.00000           0.275704            7.50229
    122       0.00000           0.287625            7.82667
    123       0.00000           0.292430            7.95741
    124       0.00000           0.293217            7.97885
    125       0.00000           0.298484            8.12216
    126       0.00000           0.299237            8.14265
    127       0.00000           0.306171            8.33134
    128       0.00000           0.306830            8.34926
    129       0.00000           0.313916            8.54208
    130       0.00000           0.315715            8.59105
    131       0.00000           0.322471            8.77489
    132       0.00000           0.334136            9.09229
    133       0.00000           0.335022            9.11642
    134       0.00000           0.350305            9.53229
    135       0.00000           0.351194            9.55647
    136       0.00000           0.353996            9.63271

  Highest occupied state (VBM) at     -5.45410189 eV
  | Occupation number:      2.00000000

  Lowest unoccupied state (CBM) at    -2.16605545 eV
  | Occupation number:      0.00000000

  Overall HOMO-LUMO gap:      3.28804644 eV.

  Total energy components:
  | Sum of eigenvalues            :        -395.07296331 Ha      -10750.48231029 eV
  | XC energy correction          :        -102.27593734 Ha       -2783.06985612 eV
  | XC potential correction       :         131.38726598 Ha        3575.22941297 eV
  | Free-atom electrostatic energy:        -301.71542244 Ha       -8210.09436950 eV
  | Hartree energy correction     :         -26.35458036 Ha        -717.14461947 eV
  | Entropy correction            :           0.00000000 Ha           0.00000000 eV
  | ---------------------------
  | Total energy                  :        -694.03163747 Ha      -18885.56174240 eV
  | Total energy, T -> 0          :        -694.03163747 Ha      -18885.56174240 eV  <-- do not rely on this value for anything but (periodic) metals
  | Electronic free energy        :        -694.03163747 Ha      -18885.56174240 eV

  Derived energy quantities:
  | Kinetic energy                :         692.56791784 Ha       18845.73190462 eV
  | Electrostatic energy          :       -1284.32361797 Ha      -34948.22379090 eV
  | Energy correction for multipole
  | error in Hartree potential    :          -0.08110998 Ha          -2.20711493 eV
  | Sum of eigenvalues per atom                           :        -335.95257220 eV
  | Total energy (T->0) per atom                          :        -590.17380445 eV  <-- do not rely on this value for anything but (periodic) metals
  | Electronic free energy per atom                       :        -590.17380445 eV
  End evaluation of scaled ZORA corrections.
  | Time for scaled ZORA corrections           :        1.979 s           1.990 s
------------------------------------------------------------

  Energy and forces in a compact form:
  | Total energy uncorrected      :         -0.188855617423998E+05 eV
  | Total energy corrected        :         -0.188855617423998E+05 eV  <-- do not rely on this value for anything but (periodic) metals
  | Electronic free energy        :         -0.188855617423998E+05 eV

  ------------------------------------ 
  Start decomposition of the XC Energy 
  ------------------------------------ 
  X and C from original XC functional choice 
  Hartree-Fock Energy :          0.000000000 Ha              0.000000000 eV
  X Energy            :        -98.222869273 Ha          -2672.780262480 eV
  C Energy            :         -4.053068069 Ha           -110.289593637 eV
  Total XC Energy     :       -102.275937342 Ha          -2783.069856117 eV
  ------------------------------------ 
  LDA X and C from self-consistent density 
  X Energy LDA        :        -88.934655835 Ha          -2420.035115307 eV
  C Energy LDA        :         -7.829932281 Ha           -213.063297899 eV
  ------------------------------------ 
  End decomposition of the XC Energy 
  ------------------------------------ 

------------------------------------------------------------

------------------------------------------------------------------------------
  Final output of selected total energy values:

  The following output summarizes some interesting total energy values
  at the end of a run (AFTER all relaxation, molecular dynamics, etc.).

  | Total energy of the DFT / Hartree-Fock s.c.f. calculation      :         -18885.561742400 eV
  | Final zero-broadening corrected energy (caution - metals only) :         -18885.561742400 eV
  | For reference only, the value of 1 Hartree used in FHI-aims is :             27.211384500 eV

  Before relying on these values, please be sure to understand exactly which
  total energy value is referred to by a given number. Different objects may
  all carry the same name 'total energy'. Definitions:

  Total energy of the DFT / Hartree-Fock s.c.f. calculation:
  | Note that this energy does not include ANY quantities calculated after the
  | s.c.f. cycle, in particular not ANY RPA, MP2, etc. many-body perturbation terms.
  | Scalar relativistic effects have been included in the 'scaled ZORA' approximation.

  Final zero-broadening corrected energy:
  | For metallic systems only, a broadening of the occupation numbers at the Fermi
  | level can be extrapolated back to zero broadening by an electron-gas inspired
  | formula. For all systems that are not real metals, this value can be
  | meaningless and should be avoided.

------------------------------------------------------------------------------
  Methods described in the following list of references were used in this FHI-aims run.
  If you publish the results, please make sure to cite these reference if they apply.
  FHI-aims is an academic code, and for our developers (often, Ph.D. students
  and postdocs), scientific credit in the community is essential.
  Thank you for helping us!

  For any use of FHI-aims, please cite:

    Volker Blum, Ralf Gehrke, Felix Hanke, Paula Havu, Ville Havu,
    Xinguo Ren, Karsten Reuter, and Matthias Scheffler
    'Ab initio molecular simulations with numeric atom-centered orbitals'
    Computer Physics Communications 180, 2175-2196 (2009)
    http://dx.doi.org/10.1016/j.cpc.2009.06.022


  The scalable eigensolver library ELPA was used in your run.
  ELPA is essential especially for large systems on hundreds or thousands of CPUs.
  For ELPA, please cite:

    Andreas Marek, Volker Blum, Rainer Johanni, Ville Havu, Bruno Lang,
    Thomas Auckenthaler, Alexander Heinecke, Hans-Joachim Bungartz, and Hermann Lederer,
    'The ELPA Library - Scalable Parallel Eigenvalue Solutions
    for Electronic Structure Theory and Computational Science'
    The Journal of Physics: Condensed Matter 26, 213201 (2014).
    http://dx.doi.org/10.1088/0953-8984/26/21/213201


  The ELSI infrastructure was used in your run to solve the Kohn-Sham electronic structure.
  Please check out http://elsi-interchange.org to learn more.
  If scalability is important for your project, please acknowledge ELSI by citing:

    V. W-z. Yu, F. Corsetti, A. Garcia, W. P. Huhn, M. Jacquelin, W. Jia,
    B. Lange, L. Lin, J. Lu, W. Mi, A. Seifitokaldani, A. Vazquez-Mayagoitia,
    C. Yang, H. Yang, and V. Blum
    'ELSI: A unified software interface for Kohn-Sham electronic structure solvers'
    Computer Physics Communications 222, 267-285 (2018).
    http://dx.doi.org/10.1016/j.cpc.2017.09.007


  For the real-space grid partitioning and parallelization used in this calculation, please cite:

    Ville Havu, Volker Blum, Paula Havu, and Matthias Scheffler,
    'Efficient O(N) integration for all-electron electronic structure calculation'
    'using numerically tabulated basis functions'
    Journal of Computational Physics 228, 8367-8379 (2009).
    http://dx.doi.org/10.1016/j.jcp.2009.08.008

  Of course, there are many other important community references, e.g., those cited in the
  above references. Our list is limited to references that describe implementations in the
  FHI-aims code. The reason is purely practical (length of this list) - please credit others as well.

------------------------------------------------------------
          Leaving FHI-aims.
          Date     :  20210620, Time     :  174951.452

          Computational steps:
          | Number of self-consistency cycles          :           15
          | Number of SCF (re)initializations          :            1

          Detailed time accounting                     :  max(cpu_time)    wall_clock(cpu1)
          | Total time                                 :       36.252 s          36.418 s
          | Preparation time                           :        0.203 s           0.203 s
          | Boundary condition initalization           :        0.000 s           0.004 s
          | Grid partitioning                          :        0.365 s           0.369 s
          | Preloading free-atom quantities on grid    :        0.014 s           0.015 s
          | Free-atom superposition energy             :        0.032 s           0.033 s
          | Total time for integrations                :       20.847 s          20.853 s
          | Total time for solution of K.-S. equations :        1.134 s           1.158 s
          | Total time for density update              :        7.195 s           7.162 s
          | Total time for mixing                      :        0.073 s           0.073 s
          | Total time for Hartree multipole update    :        0.102 s           0.109 s
          | Total time for Hartree multipole sum       :        3.779 s           3.783 s
          | Total time for total energy evaluation     :        0.008 s           0.027 s
          | Total time for scaled ZORA corrections     :        1.979 s           1.990 s

          Partial memory accounting:
          | Residual value for overall tracked memory usage across tasks :     0.000000 MB (should be 0.000000 MB)
          | Peak values for overall tracked memory usage (after allocating zora_vector2):
          |   Minimum:       14.714 MB (on task 23)
          |   Maximum:       17.482 MB (on task  5)
          |   Average:       16.286 MB
          | Largest tracked array allocation (hamiltonian_shell):
          |   Minimum:        3.297 MB (on task  1)
          |   Maximum:        3.297 MB (on task  1)
          |   Average:        3.297 MB
          Note:  These values currently only include a subset of arrays which are explicitly tracked.
          The "true" memory usage will be greater.

          Have a nice day.
------------------------------------------------------------
