  MPI-parallelism will be employed.
------------------------------------------------------------
          Invoking FHI-aims ...
          Version 180607
          Git rev. (modified): 6724847 Fix JSON memory corruption in scf_solver
          Compiled on 2018/06/27 at 16:00:31 on host coe.psc.edu.

          When using FHI-aims, please cite the following reference:

          Volker Blum, Ralf Gehrke, Felix Hanke, Paula Havu,
          Ville Havu, Xinguo Ren, Karsten Reuter, and Matthias Scheffler,
          'Ab Initio Molecular Simulations with Numeric Atom-Centered Orbitals',
          Computer Physics Communications 180, 2175-2196 (2009)

          For any questions about FHI-aims, please visit the aimsclub website
          with its forums and wiki. Contributions to both the forums and the
          wiki are warmly encouraged - they are for you, and everyone is welcome there.

------------------------------------------------------------



  Date     :  20210620, Time     :  174740.233
  Time zero on CPU 1             :   0.225411000000000E+00  s.
  Internal wall clock time zero  :           393443260.233  s.

  FHI-aims created a unique identifier for this run for later identification
  aims_uuid : 169EF4B7-3137-49B8-A7CE-30EBDDD7A060

  Using       56 parallel tasks.
  Task        0 on host f001 reporting.
  Task        1 on host f001 reporting.
  Task        2 on host f001 reporting.
  Task        3 on host f001 reporting.
  Task        4 on host f001 reporting.
  Task        5 on host f001 reporting.
  Task        6 on host f001 reporting.
  Task        7 on host f001 reporting.
  Task        8 on host f001 reporting.
  Task        9 on host f001 reporting.
  Task       10 on host f001 reporting.
  Task       11 on host f001 reporting.
  Task       12 on host f001 reporting.
  Task       13 on host f001 reporting.
  Task       14 on host f001 reporting.
  Task       15 on host f001 reporting.
  Task       16 on host f001 reporting.
  Task       17 on host f001 reporting.
  Task       18 on host f001 reporting.
  Task       19 on host f001 reporting.
  Task       20 on host f001 reporting.
  Task       21 on host f001 reporting.
  Task       22 on host f001 reporting.
  Task       23 on host f001 reporting.
  Task       24 on host f001 reporting.
  Task       25 on host f001 reporting.
  Task       26 on host f001 reporting.
  Task       27 on host f001 reporting.
  Task       28 on host f001 reporting.
  Task       29 on host f001 reporting.
  Task       30 on host f001 reporting.
  Task       31 on host f001 reporting.
  Task       32 on host f001 reporting.
  Task       33 on host f001 reporting.
  Task       34 on host f001 reporting.
  Task       35 on host f001 reporting.
  Task       36 on host f001 reporting.
  Task       37 on host f001 reporting.
  Task       38 on host f001 reporting.
  Task       39 on host f001 reporting.
  Task       40 on host f001 reporting.
  Task       41 on host f001 reporting.
  Task       42 on host f001 reporting.
  Task       43 on host f001 reporting.
  Task       44 on host f001 reporting.
  Task       45 on host f001 reporting.
  Task       46 on host f001 reporting.
  Task       47 on host f001 reporting.
  Task       48 on host f001 reporting.
  Task       49 on host f001 reporting.
  Task       50 on host f001 reporting.
  Task       51 on host f001 reporting.
  Task       52 on host f001 reporting.
  Task       53 on host f001 reporting.
  Task       54 on host f001 reporting.
  Task       55 on host f001 reporting.

  Performing system and environment tests:
  *** Environment variable OMP_NUM_THREADS is not set
  *** For performance reasons you might want to set it to 1
  | Stacksize not measured: no C compiler
  | Checking for scalapack...
  | Testing pdtran()...
  | All pdtran() tests passed.

  Obtaining array dimensions for all initial allocations:
  
  -----------------------------------------------------------------------
  Parsing control.in (first pass over file, find array dimensions only).
  The contents of control.in will be repeated verbatim below
  unless switched off by setting 'verbatim_writeout .false.' .
  in the first line of control.in .
  -----------------------------------------------------------------------
  
  #===============================================================================
  # FHI-aims file: ./Runs/es/control.in
  # Created using the Atomic Simulation Environment (ASE)
  # Mon Jan 13 16:04:38 2020
  #===============================================================================
  xc                                 pbe
  relativistic                       zora scalar 1e-12
  occupation_type                    gaussian 0.0001
  load_balancing                     .true.
  KS_method                          scalapack_fast
  mixer                              pulay
  n_max_pulay                        5
  charge_mix_param                   0.4
  sc_accuracy_etot                   1e-6
  sc_accuracy_eev                    1e-4
  sc_accuracy_rho                    1e-6
  sc_iter_limit                      100
  prodbas_threshold                  1e-4
  basis_threshold                    1e-5
  override_illconditioning           .true.
  use_logsbt                         .true.
  spin                               none
  charge                             0
  #===============================================================================
  
  ################################################################################
  #
  #  FHI-aims code project
  # Volker Blum, Fritz Haber Institute Berlin, 2009
  #
  #  Suggested "tight" defaults for H atom (to be pasted into control.in file)
  #
  ################################################################################
    species        H
  #     global species definitions
      nucleus             1
      mass                1.00794
  #
      l_hartree           6
  #
      cut_pot             4.0  2.0  1.0
      basis_dep_cutoff    1e-4
  #
      radial_base         24 7.0
      radial_multiplier   2
      angular_grids       specified
        division   0.1930   50
        division   0.3175  110
        division   0.4293  194
        division   0.5066  302
        division   0.5626  434
  #      division   0.5922  590
  #      division   0.6227  974
  #      division   0.6868 1202
  #      outer_grid  770
        outer_grid  434
  ################################################################################
  #
  #  Definition of "minimal" basis
  #
  ################################################################################
  #     valence basis states
      valence      1  s   1.
  #     ion occupancy
      ion_occ      1  s   0.5
  ################################################################################
  #
  #  Suggested additional basis functions. For production calculations,
  #  uncomment them one after another (the most important basis functions are
  #  listed first).
  #
  #  Basis constructed for dimers: 0.5 A, 0.7 A, 1.0 A, 1.5 A, 2.5 A
  #
  ################################################################################
  #  "First tier" - improvements: -1014.90 meV to -62.69 meV
       hydro 2 s 2.1
       hydro 2 p 3.5
  #  "Second tier" - improvements: -12.89 meV to -1.83 meV
       hydro 1 s 0.85
       hydro 2 p 3.7
       hydro 2 s 1.2
       hydro 3 d 7
  #  "Third tier" - improvements: -0.25 meV to -0.12 meV
  #     hydro 4 f 11.2
  #     hydro 3 p 4.8
  #     hydro 4 d 9
  #     hydro 3 s 3.2
  ################################################################################
  #
  # For methods that use the localized form of the "resolution of identity" for
  # the two-electron Coulomb operator (RI_method LVL), particularly Hartree-Fock and
  # hybrid density functional calculations, the highest accuracy can be obtained by
  # uncommenting the line beginning with "for_aux"  below, thus adding an extra g radial
  # function to the construction of the product basis set for the expansion.
  # See Ref. New J. Phys. 17, 093020 (2015) for more information, particularly Figs. 1 and 6.
  #
  ################################################################################
  #
  # for_aux hydro 5 g 6.0
  ################################################################################
  #
  #  FHI-aims code project
  # Volker Blum, Fritz Haber Institute Berlin, 2009
  #
  #  Suggested "tight" defaults for C atom (to be pasted into control.in file)
  #
  ################################################################################
    species        C
  #     global species definitions
      nucleus             6
      mass                12.0107
  #
      l_hartree           6
  #
      cut_pot             4.0  2.0  1.0
      basis_dep_cutoff    1e-4
  #
      radial_base         34 7.0
      radial_multiplier   2
      angular_grids specified
        division   0.2187   50
        division   0.4416  110
        division   0.6335  194
        division   0.7727  302
        division   0.8772  434
  #      division   0.9334  590
  #      division   0.9924  770
  #      division   1.0230  974
  #      division   1.5020 1202
  #     outer_grid  974
        outer_grid  434
  ################################################################################
  #
  #  Definition of "minimal" basis
  #
  ################################################################################
  #     valence basis states
      valence      2  s   2.
      valence      2  p   2.
  #     ion occupancy
      ion_occ      2  s   1.
      ion_occ      2  p   1.
  ################################################################################
  #
  #  Suggested additional basis functions. For production calculations,
  #  uncomment them one after another (the most important basis functions are
  #  listed first).
  #
  #  Constructed for dimers: 1.0 A, 1.25 A, 1.5 A, 2.0 A, 3.0 A
  #
  ################################################################################
  #  "First tier" - improvements: -1214.57 meV to -155.61 meV
       hydro 2 p 1.7
       hydro 3 d 6
       hydro 2 s 4.9
  #  "Second tier" - improvements: -67.75 meV to -5.23 meV
       hydro 4 f 9.8
       hydro 3 p 5.2
       hydro 3 s 4.3
       hydro 5 g 14.4
       hydro 3 d 6.2
  #  "Third tier" - improvements: -2.43 meV to -0.60 meV
  #     hydro 2 p 5.6
  #     hydro 2 s 1.4
  #     hydro 3 d 4.9
  #     hydro 4 f 11.2
  #  "Fourth tier" - improvements: -0.39 meV to -0.18 meV
  #     hydro 2 p 2.1
  #     hydro 5 g 16.4
  #     hydro 4 d 13.2
  #     hydro 3 s 13.6
  #     hydro 4 f 17.6
  #  Further basis functions - improvements: -0.08 meV and below
  #     hydro 3 s 2
  #     hydro 3 p 6
  #     hydro 4 d 20
  ################################################################################
  #
  # For methods that use the localized form of the "resolution of identity" for
  # the two-electron Coulomb operator (RI_method LVL), particularly Hartree-Fock and
  # hybrid density functional calculations, the highest accuracy can be obtained by
  # uncommenting the line beginning with "for_aux"  below, thus adding an extra g radial
  # function to the construction of the product basis set for the expansion.
  # See Ref. New J. Phys. 17, 093020 (2015) for more information, particularly Figs. 1 and 6.
  #
  ################################################################################
  #
  # for_aux hydro 5 g 6.0
  
  -----------------------------------------------------------------------
  Completed first pass over input file control.in .
  -----------------------------------------------------------------------
  
  
  -----------------------------------------------------------------------
  Parsing geometry.in (first pass over file, find array dimensions only).
  The contents of geometry.in will be repeated verbatim below
  unless switched off by setting 'verbatim_writeout .false.' .
  in the first line of geometry.in .
  -----------------------------------------------------------------------
  
  #=======================================================
  # FHI-aims file: geometry.in
  # Created using the Atomic Simulation Environment (ASE)
  # Sun Jun 20 15:47:02 2021
  #=======================================================
  atom 9.1130350000000000 57.4008609999999990 66.3583849999999984 H
  atom 8.6386800000000008 56.4419639999999987 66.5719359999999938 C
  atom 8.1638999999999999 55.7375120000000024 65.4719779999999929 C
  atom 8.5228800000000007 56.0338029999999989 67.8650949999999966 C
  atom 7.5964799999999997 54.4542780000000022 65.6729069999999950 C
  atom 8.3530400000000000 56.1644840000000016 64.1633630000000039 C
  atom 7.9554600000000004 54.7321930000000023 68.1252730000000071 C
  atom 8.9706399999999995 56.8699319999999986 69.0011180000000053 C
  atom 7.0869600000000004 53.7038470000000032 64.6373499999999979 C
  atom 7.4845400000000000 54.0275630000000007 67.0510749999999973 C
  atom 7.8435199999999998 55.4140530000000027 63.1278050000000022 C
  atom 8.8515979999999992 57.1125329999999991 63.9596000000000018 H
  atom 7.8821199999999996 54.2239909999999981 69.5060169999999999 C
  atom 8.8625600000000002 56.3252519999999990 70.3535250000000048 C
  atom 9.4647199999999998 58.1612489999999980 68.8414049999999946 C
  atom 6.5884020000000003 52.7557979999999986 64.8411119999999954 H
  atom 7.2760999999999996 54.1308199999999999 63.3287339999999972 C
  atom 6.9998009999999997 53.0635729999999981 67.2038330000000030 H
  atom 7.9554600000000004 55.8407679999999971 61.7496379999999974 C
  atom 7.4497999999999998 52.9508599999999987 69.7764980000000037 C
  atom 8.3800600000000003 55.0111630000000034 70.5673340000000024 C
  atom 9.3527799999999992 57.1258729999999986 71.4277230000000003 C
  atom 9.5220409999999998 58.5861909999999995 67.8408809999999960 H
  atom 9.9009000000000000 58.9306649999999976 69.9078750000000042 C
  atom 6.8013199999999996 53.4263669999999991 62.2287760000000034 C
  atom 7.4845400000000000 55.1361380000000025 60.6754400000000018 C
  atom 8.4401989999999998 56.8047589999999971 61.5968799999999987 H
  atom 7.0974979999999999 52.3032559999999975 68.9769029999999930 H
  atom 7.4420799999999998 52.4516319999999965 71.0696570000000065 C
  atom 8.3105799999999999 54.4889920000000032 71.8682220000000029 C
  atom 9.2871600000000001 56.5709990000000005 72.7595230000000015 C
  atom 9.8391400000000004 58.4155269999999973 71.1881539999999973 C
  atom 10.2907989999999998 59.9338789999999975 69.7422370000000029 H
  atom 6.3269650000000004 52.4674699999999987 62.4423280000000034 H
  atom 6.9171199999999997 53.8345279999999988 60.9356170000000006 C
  atom 7.5578799999999999 55.6443399999999997 59.2946960000000018 C
  atom 7.0922869999999998 51.4303359999999969 71.2340070000000054 H
  atom 7.8512399999999998 53.2142770000000027 72.1541590000000070 C
  atom 8.8162400000000005 55.3252120000000005 72.9552999999999940 C
  atom 9.6594960000000007 57.1684070000000020 73.5926060000000035 H
  atom 10.2042190000000002 59.0010320000000021 72.0341169999999948 H
  atom 6.4693600000000000 52.9983989999999991 59.7995949999999965 C
  atom 7.0599400000000001 54.8571680000000015 58.2333780000000019 C
  atom 7.9901999999999997 56.9174709999999990 59.0242149999999981 C
  atom 7.8399690000000000 52.8334350000000015 73.1734880000000061 H
  atom 8.7785659999999996 54.9075389999999999 73.9617480000000000 H
  atom 5.9752799999999997 51.7070819999999998 59.9593080000000000 C
  atom 6.5774400000000002 53.5430789999999988 58.4471869999999996 C
  atom 7.1294199999999996 55.3793390000000016 56.9324909999999988 C
  atom 7.9979199999999997 57.4166990000000013 57.7310549999999978 C
  atom 8.3425019999999996 57.5650759999999977 59.8238089999999971 H
  atom 5.5391000000000004 50.9376660000000001 58.8928379999999976 C
  atom 5.9179589999999997 51.2821399999999983 60.9598319999999987 H
  atom 6.0872200000000003 52.7424579999999992 57.3729889999999969 C
  atom 6.6237599999999999 54.5431189999999972 55.8454130000000006 C
  atom 7.5887599999999997 56.6540540000000021 56.6465529999999973 C
  atom 8.3477130000000006 58.4379950000000008 57.5667060000000035 H
  atom 5.1492009999999997 49.9344520000000003 59.0584759999999989 H
  atom 5.6008599999999999 51.4528040000000004 57.6125589999999974 C
  atom 6.1528400000000003 53.2973319999999973 56.0411900000000003 C
  atom 6.6614339999999999 54.9607919999999979 54.8389639999999972 H
  atom 7.6000310000000004 57.0348960000000034 55.6272250000000028 H
  atom 5.2357810000000002 50.8672990000000027 56.7665959999999998 H
  atom 5.7805039999999996 52.6999240000000029 55.2081069999999983 H
  
  -----------------------------------------------------------------------
  Completed first pass over input file geometry.in .
  -----------------------------------------------------------------------
  

  Basic array size parameters:
  | Number of species                 :        2
  | Number of atoms                   :       64
  | Max. basis fn. angular momentum   :        4
  | Max. atomic/ionic basis occupied n:        2
  | Max. number of basis fn. types    :        2
  | Max. radial fns per species/type  :        8
  | Max. logarithmic grid size        :     1277
  | Max. radial integration grid size :       69
  | Max. angular integration grid size:      434
  | Max. angular grid division number :        8
  | Radial grid for Hartree potential :     1277
  | Number of spin channels           :        1

------------------------------------------------------------
          Reading file control.in.
------------------------------------------------------------
  XC: Using PBE gradient-corrected functionals.
  Scalar relativistic treatment of kinetic energy: ZORA.
  Threshold value for ZORA:   0.100000E-11
  Occupation type: Gaussian broadening, width =   0.100000E-03 eV.
  Since 'load_balancing .true.' is present in control.in, automatically turning on 'use_local_index .true.'.
  Using load balancing for integrations.
  Kohn-Sham electronic structure solved by the ELSI library.
  Using pulay charge density mixing.
  Pulay mixing - number of memorized iterations:    5
  Charge density mixing - mixing parameter:     0.4000
  Convergence accuracy of total energy:  0.1000E-05
  Convergence accuracy of sum of eigenvalues:  0.1000E-03
  Convergence accuracy of self-consistent charge density:  0.1000E-05
  Maximum number of s.-c. iterations  :   100
  * Ignoring prodbas_threshold
  Threshold for basis singularities:  0.1000E-04
  override_illconditioning: Explicitly overriding any built-in checks for an ill-conditioned overlap matrix.
  *** WARNING: If you use this flag, you should really know what you are doing.
  *** DO NOT keep this flag set by default in all your control.in files.
  Using 1D integrations for auxiliary 2-center integrals.
  Spin treatment: No spin polarisation.
  Charge =   0.000000E+00: Neutral system requested explicitly.
 
  Reading configuration options for species H                   .
  | Found nuclear charge :   1.0000
  | Found atomic mass :    1.00794000000000      amu
  | Found l_max for Hartree potential  :   6
  | Found cutoff potl. onset [A], width [A], scale factor :    4.00000    2.00000    1.00000
  | Threshold for basis-dependent cutoff potential is   0.100000E-03
  | Found data for basic radial integration grid :    24 points, outermost radius =    7.000 A
  | Found multiplier for basic radial grid :   2
  | Found angular grid specification: user-specified.
  | Specified grid contains     6 separate shells.
  | Check grid settings after all constraints further below.
  | Found free-atom valence shell :  1 s   1.000
  | No ionic wave fns used. Skipping ion_occ.
  | Found hydrogenic basis function :  2 s   2.100
  | Found hydrogenic basis function :  2 p   3.500
  | Found hydrogenic basis function :  1 s   0.850
  | Found hydrogenic basis function :  2 p   3.700
  | Found hydrogenic basis function :  2 s   1.200
  | Found hydrogenic basis function :  3 d   7.000
  Species H                   : Missing cutoff potential type.
  Defaulting to exp(1/x)/(1-x)^2 type cutoff potential.
  Species H : No 'logarithmic' tag. Using default grid for free atom:
  | Default logarithmic grid data [bohr] : 0.1000E-03 0.1000E+03 0.1012E+01
  Species H : On-site basis accuracy parameter (for Gram-Schmidt orthonormalisation) not specified.
  Using default value basis_acc =  0.1000000E-03.
  Species H                   : Using default innermost maximum threshold i_radial=  2 for radial functions.
  Species H                   : Default cutoff onset for free atom density etc. : 0.40000000E+01 AA.
  Species H                   : Basic radial grid will be enhanced according to radial_multiplier =   2, to contain    49 grid points.
 
  Reading configuration options for species C                   .
  | Found nuclear charge :   6.0000
  | Found atomic mass :    12.0107000000000      amu
  | Found l_max for Hartree potential  :   6
  | Found cutoff potl. onset [A], width [A], scale factor :    4.00000    2.00000    1.00000
  | Threshold for basis-dependent cutoff potential is   0.100000E-03
  | Found data for basic radial integration grid :    34 points, outermost radius =    7.000 A
  | Found multiplier for basic radial grid :   2
  | Found angular grid specification: user-specified.
  | Specified grid contains     6 separate shells.
  | Check grid settings after all constraints further below.
  | Found free-atom valence shell :  2 s   2.000
  | Found free-atom valence shell :  2 p   2.000
  | No ionic wave fns used. Skipping ion_occ.
  | No ionic wave fns used. Skipping ion_occ.
  | Found hydrogenic basis function :  2 p   1.700
  | Found hydrogenic basis function :  3 d   6.000
  | Found hydrogenic basis function :  2 s   4.900
  | Found hydrogenic basis function :  4 f   9.800
  | Found hydrogenic basis function :  3 p   5.200
  | Found hydrogenic basis function :  3 s   4.300
  | Found hydrogenic basis function :  5 g  14.400
  | Found hydrogenic basis function :  3 d   6.200
  Species C                   : Missing cutoff potential type.
  Defaulting to exp(1/x)/(1-x)^2 type cutoff potential.
  Species C : No 'logarithmic' tag. Using default grid for free atom:
  | Default logarithmic grid data [bohr] : 0.1000E-03 0.1000E+03 0.1012E+01
  Species C : On-site basis accuracy parameter (for Gram-Schmidt orthonormalisation) not specified.
  Using default value basis_acc =  0.1000000E-03.
  Species C                   : Using default innermost maximum threshold i_radial=  2 for radial functions.
  Species C                   : Default cutoff onset for free atom density etc. : 0.40000000E+01 AA.
  Species C                   : Basic radial grid will be enhanced according to radial_multiplier =   2, to contain    69 grid points.
 
  Finished reading input file 'control.in'. Consistency checks are next.
 
  MPI_IN_PLACE appears to work with this MPI implementation.
  | Keeping use_mpi_in_place .true. (see manual).
  Target number of points in a grid batch is not set. Defaulting to  100
  Method for grid partitioning is not set. Defaulting to parallel hash+maxmin partitioning.
  Batch size limit is not set. Defaulting to    200
  By default, will store active basis functions for each batch.
  If in need of memory, prune_basis_once .false. can be used to disable this option.
  communication_type for Hartree potential was not specified.
  Defaulting to calc_hartree .
  Pulay mixer: Number of initial linear mixing iterations not set.
  Defaulting to    0 iterations.
  Work space size for distributed Hartree potential not set.
  Defaulting to   0.200000E+03 MB.
  Algorithm-dependent basis array size parameters:
  | n_max_pulay                         :        5
  Presetting      1001 iterations before the initial mixing cycle
  is restarted anyway using the sc_init_iter criterion / keyword.
  Presetting a factor      1.000 between actual scf density residual
  and density convergence criterion sc_accuracy_rho below which sc_init_iter
  takes no effect.
  Calculation of forces was not defined in control.in. No forces will be calculated.
  Geometry relaxation not requested: no relaxation will be performed.
  No accuracy limit for integral partition fn. given. Defaulting to  0.1000E-14.
  No threshold value for u(r) in integrations given. Defaulting to  0.1000E-05.
  No accuracy for occupation numbers given. Defaulting to  0.1000E-12.
  No threshold value for occupation numbers given. Defaulting to  0.0000E+00.
  No accuracy for fermi level given. Defaulting to  0.1000E-19.
  Maximum # of iterations to find E_F not set. Defaulting to  200.
  Will not use alltoall communication since running on < 1024 CPUs.
  partition_type (choice of integration weights) for integrals was not specified.
  | Using a version of the partition function of Stratmann and coworkers ('stratmann_sparse').
  | At each grid point, the set of atoms used to build the partition table is smoothly restricted to
  | only those atoms whose free-atom density would be non-zero at that grid point.
  Partitioning for Hartree potential was not defined. Using partition_type for integrals.
  | Adjusted default value of keyword multip_moments_threshold to:       0.10000000E-11
  | This value may affect high angular momentum components of the Hartree potential in periodic systems.
  No q(lm)/r^(l+1) cutoff set for long-range Hartree potential.
  | Using default value of  0.100000E-09 .
  | Verify using the multipole_threshold keyword.
  Defaulting to new monopole extrapolation.
  Density update method: automatic selection selected.
 * Warning: use_local_index and/or load_balancing needs packed_matrix_format = index
 * Changing the default setting to packed_matrix_format = index
------------------------------------------------------------


------------------------------------------------------------
          Reading geometry description geometry.in.
------------------------------------------------------------
  Input structure read successfully.
  The structure contains       64 atoms,  and a total of        274.000 electrons.

  Input geometry:
  | No unit cell requested.
  | Atomic structure:
  |       Atom                x [A]            y [A]            z [A]
  |    1: Species H             9.11303500       57.40086100       66.35838500
  |    2: Species C             8.63868000       56.44196400       66.57193600
  |    3: Species C             8.16390000       55.73751200       65.47197800
  |    4: Species C             8.52288000       56.03380300       67.86509500
  |    5: Species C             7.59648000       54.45427800       65.67290700
  |    6: Species C             8.35304000       56.16448400       64.16336300
  |    7: Species C             7.95546000       54.73219300       68.12527300
  |    8: Species C             8.97064000       56.86993200       69.00111800
  |    9: Species C             7.08696000       53.70384700       64.63735000
  |   10: Species C             7.48454000       54.02756300       67.05107500
  |   11: Species C             7.84352000       55.41405300       63.12780500
  |   12: Species H             8.85159800       57.11253300       63.95960000
  |   13: Species C             7.88212000       54.22399100       69.50601700
  |   14: Species C             8.86256000       56.32525200       70.35352500
  |   15: Species C             9.46472000       58.16124900       68.84140500
  |   16: Species H             6.58840200       52.75579800       64.84111200
  |   17: Species C             7.27610000       54.13082000       63.32873400
  |   18: Species H             6.99980100       53.06357300       67.20383300
  |   19: Species C             7.95546000       55.84076800       61.74963800
  |   20: Species C             7.44980000       52.95086000       69.77649800
  |   21: Species C             8.38006000       55.01116300       70.56733400
  |   22: Species C             9.35278000       57.12587300       71.42772300
  |   23: Species H             9.52204100       58.58619100       67.84088100
  |   24: Species C             9.90090000       58.93066500       69.90787500
  |   25: Species C             6.80132000       53.42636700       62.22877600
  |   26: Species C             7.48454000       55.13613800       60.67544000
  |   27: Species H             8.44019900       56.80475900       61.59688000
  |   28: Species H             7.09749800       52.30325600       68.97690300
  |   29: Species C             7.44208000       52.45163200       71.06965700
  |   30: Species C             8.31058000       54.48899200       71.86822200
  |   31: Species C             9.28716000       56.57099900       72.75952300
  |   32: Species C             9.83914000       58.41552700       71.18815400
  |   33: Species H            10.29079900       59.93387900       69.74223700
  |   34: Species H             6.32696500       52.46747000       62.44232800
  |   35: Species C             6.91712000       53.83452800       60.93561700
  |   36: Species C             7.55788000       55.64434000       59.29469600
  |   37: Species H             7.09228700       51.43033600       71.23400700
  |   38: Species C             7.85124000       53.21427700       72.15415900
  |   39: Species C             8.81624000       55.32521200       72.95530000
  |   40: Species H             9.65949600       57.16840700       73.59260600
  |   41: Species H            10.20421900       59.00103200       72.03411700
  |   42: Species C             6.46936000       52.99839900       59.79959500
  |   43: Species C             7.05994000       54.85716800       58.23337800
  |   44: Species C             7.99020000       56.91747100       59.02421500
  |   45: Species H             7.83996900       52.83343500       73.17348800
  |   46: Species H             8.77856600       54.90753900       73.96174800
  |   47: Species C             5.97528000       51.70708200       59.95930800
  |   48: Species C             6.57744000       53.54307900       58.44718700
  |   49: Species C             7.12942000       55.37933900       56.93249100
  |   50: Species C             7.99792000       57.41669900       57.73105500
  |   51: Species H             8.34250200       57.56507600       59.82380900
  |   52: Species C             5.53910000       50.93766600       58.89283800
  |   53: Species H             5.91795900       51.28214000       60.95983200
  |   54: Species C             6.08722000       52.74245800       57.37298900
  |   55: Species C             6.62376000       54.54311900       55.84541300
  |   56: Species C             7.58876000       56.65405400       56.64655300
  |   57: Species H             8.34771300       58.43799500       57.56670600
  |   58: Species H             5.14920100       49.93445200       59.05847600
  |   59: Species C             5.60086000       51.45280400       57.61255900
  |   60: Species C             6.15284000       53.29733200       56.04119000
  |   61: Species H             6.66143400       54.96079200       54.83896400
  |   62: Species H             7.60003100       57.03489600       55.62722500
  |   63: Species H             5.23578100       50.86729900       56.76659600
  |   64: Species H             5.78050400       52.69992400       55.20810700
  |

  | The smallest distance between any two atoms is         1.08759344 AA.
  |
  | The first atom of this pair is atom number                     44 .
  | The second atom of this pair is atom number                    51 .

  Number of empty states per atom not set in control.in - providing a guess from actual geometry.
  | Total number of empty states used during s.c.f. cycle:      159
  If you use a very high smearing, use empty_states (per atom!) in control.in to increase this value.

  Structure-dependent array size parameters: 
  | Maximum number of distinct radial functions  :       18
  | Maximum number of basis functions            :     1968
  | Number of Kohn-Sham states (occupied + empty):      296
------------------------------------------------------------

------------------------------------------------------------
          Preparing all fixed parts of the calculation.
------------------------------------------------------------
  Determining machine precision:
    2.225073858507201E-308
  Setting up grids for atomic and cluster calculations.

  Creating wave function, potential, and density for free atoms.

  Species: H

  List of occupied orbitals and eigenvalues:
    n    l              occ      energy [Ha]    energy [eV]
    1    0           1.0000        -0.238386        -6.4868


  Species: C

  List of occupied orbitals and eigenvalues:
    n    l              occ      energy [Ha]    energy [eV]
    1    0           2.0000       -10.049212      -273.4530
    2    0           2.0000        -0.504761       -13.7352
    2    1           2.0000        -0.193631        -5.2690

  Creating fixed part of basis set: Ionic, confined, hydrogenic.
 
  H                    hydrogenic:
 
  List of hydrogenic basis orbitals: 
    n    l      effective z      eigenvalue [eV]  inner max. [A]     outer max. [A]     outer radius [A]   
    2    0         2.100000       -14.9965           0.193243           1.317208           5.373006
    2    1         3.500000       -41.6672           0.602369           0.602369           4.056063
    1    0         0.850000        -9.8292           0.624871           0.624871           5.373006
    2    1         3.700000       -46.5653           0.573622           0.573622           3.910002
    2    0         1.200000        -4.5995           0.334980           2.228188           5.505995
    3    2         7.000000       -74.0753           0.680699           0.680699           3.769201
 
 
  C                    hydrogenic:
 
  List of hydrogenic basis orbitals: 
    n    l      effective z      eigenvalue [eV]  inner max. [A]     outer max. [A]     outer radius [A]   
    2    1         1.700000        -9.8152           1.245706           1.245706           5.401630
    3    2         6.000000       -54.4226           0.792453           0.792453           4.178599
    2    0         4.900000       -81.6681           0.082559           0.562749           3.353238
    4    3         9.800000       -81.6681           0.863254           0.863254           4.028125
    3    1         5.200000       -40.8774           0.305389           1.215618           4.898362
    3    0         4.300000       -27.9508           0.091041           1.610311           5.401630
    5    4        14.400000      -112.8510           0.917666           0.917666           3.883070
    3    2         6.200000       -58.1113           0.763917           0.763917           4.077671
 

  Adding cutoff potential to free-atom effective potential.
  Creating atomic-like basis functions for current effective potential.

  Species H                   :

  List of atomic basis orbitals and eigenvalues:
    n    l      energy [Ha]    energy [eV]    outer radius [A]
    1    0        -0.238386        -6.4868       5.373006


  Species C                   :

  List of atomic basis orbitals and eigenvalues:
    n    l      energy [Ha]    energy [eV]    outer radius [A]
    1    0       -10.049212      -273.4530       1.934409
    2    0        -0.504761       -13.7352       5.271162
    2    1        -0.193631        -5.2690       5.401630

  Assembling full basis from fixed parts.
  | Species H :   atomic orbital   1 s accepted.
  | Species H :    hydro orbital   2 s accepted.
  | Species H :    hydro orbital   1 s accepted.
  | Species H :    hydro orbital   2 s accepted.
  | Species H :    hydro orbital   2 p accepted.
  | Species H :    hydro orbital   2 p accepted.
  | Species H :    hydro orbital   3 d accepted.
  | Species C :   atomic orbital   1 s accepted.
  | Species C :    hydro orbital   2 s accepted.
  | Species C :   atomic orbital   2 s accepted.
  | Species C :    hydro orbital   3 s accepted.
  | Species C :    hydro orbital   3 p accepted.
  | Species C :   atomic orbital   2 p accepted.
  | Species C :    hydro orbital   2 p accepted.
  | Species C :    hydro orbital   3 d accepted.
  | Species C :    hydro orbital   3 d accepted.
  | Species C :    hydro orbital   4 f accepted.
  | Species C :    hydro orbital   5 g accepted.
 
  Basis size parameters after reduction:
  | Total number of radial functions:       18
  | Total number of basis functions :     1968
 
  Per-task memory consumption for arrays in subroutine allocate_ext:
  |           4.458936MB.
  Testing on-site integration grid accuracy.
  |  Species  Function  <phi|h_atom|phi> (log., in eV)  <phi|h_atom|phi> (rad., in eV)
           1        1                 -6.4870767962                 -6.4871688290
           1        2                 13.5032046589                 13.5028982997
           1        3                 32.8195184817                 32.8119941656
           1        4                 33.8513856511                 33.7670005767 ***
           1        5                 28.8544614965                 28.8544615203
           1        6                 59.6326952547                 59.6327656460
           1        7                 60.2719308513                 60.2719305949
           2        8               -273.4529726040               -273.4529710464
           2        9                -10.7721037319                -10.7721022101
           2       10                 17.6044132601                 17.6044162063
           2       11                 53.7706460658                 53.7706913770
           2       12                 15.0973290362                 15.0973256030
           2       13                  3.8545134692                  3.8545724687
           2       14                 12.1156992592                 12.1182024431
           2       15                 29.4352039302                 29.4352041816
           2       16                 54.8741144708                 54.8740268729
           2       17                 59.3556032049                 59.3556031382
           2       18                 93.4551837154                 93.4551838009
 * Note: Onsite integrals marked "***" above are less accurate than
 * onsite_accuracy_threshold =    0.03000 eV. Usually, this is harmless.
 * When in doubt, tighten the "radial" and/or "radial_multiplier" flags to check.

  Preparing densities etc. for the partition functions (integrals / Hartree potential).

  Preparations completed.
  max(cpu_time)          :      0.201 s.
  Wall clock time (cpu1) :      0.202 s.
------------------------------------------------------------

------------------------------------------------------------
          Begin self-consistency loop: Initialization.

          Date     :  20210620, Time     :  174740.616
------------------------------------------------------------

  Initializing index lists of integration centers etc. from given atomic structure:
  | Number of centers in hartree potential         :        64
  | Number of centers in hartree multipole         :        64
  | Number of centers in electron density summation:        64
  | Number of centers in basis integrals           :        64
  | Number of centers in integrals                 :        64
  | Number of centers in hamiltonian               :        64
  * Using 56 tasks for Scalapack Eigenvalue solver.
  Detailed listing of tasks and assigned k-points:
  (for non-periodic systems, the "k-point" denotes an internal label only)
   Task     0 k-point     1 on f001
   Task     1 k-point     1 on f001
   Task     2 k-point     1 on f001
   Task     3 k-point     1 on f001
   Task     4 k-point     1 on f001
   Task     5 k-point     1 on f001
   Task     6 k-point     1 on f001
   Task     7 k-point     1 on f001
   Task     8 k-point     1 on f001
   Task     9 k-point     1 on f001
   Task    10 k-point     1 on f001
   Task    11 k-point     1 on f001
   Task    12 k-point     1 on f001
   Task    13 k-point     1 on f001
   Task    14 k-point     1 on f001
   Task    15 k-point     1 on f001
   Task    16 k-point     1 on f001
   Task    17 k-point     1 on f001
   Task    18 k-point     1 on f001
   Task    19 k-point     1 on f001
   Task    20 k-point     1 on f001
   Task    21 k-point     1 on f001
   Task    22 k-point     1 on f001
   Task    23 k-point     1 on f001
   Task    24 k-point     1 on f001
   Task    25 k-point     1 on f001
   Task    26 k-point     1 on f001
   Task    27 k-point     1 on f001
   Task    28 k-point     1 on f001
   Task    29 k-point     1 on f001
   Task    30 k-point     1 on f001
   Task    31 k-point     1 on f001
   Task    32 k-point     1 on f001
   Task    33 k-point     1 on f001
   Task    34 k-point     1 on f001
   Task    35 k-point     1 on f001
   Task    36 k-point     1 on f001
   Task    37 k-point     1 on f001
   Task    38 k-point     1 on f001
   Task    39 k-point     1 on f001
   Task    40 k-point     1 on f001
   Task    41 k-point     1 on f001
   Task    42 k-point     1 on f001
   Task    43 k-point     1 on f001
   Task    44 k-point     1 on f001
   Task    45 k-point     1 on f001
   Task    46 k-point     1 on f001
   Task    47 k-point     1 on f001
   Task    48 k-point     1 on f001
   Task    49 k-point     1 on f001
   Task    50 k-point     1 on f001
   Task    51 k-point     1 on f001
   Task    52 k-point     1 on f001
   Task    53 k-point     1 on f001
   Task    54 k-point     1 on f001
   Task    55 k-point     1 on f001
  Tasks:    56 split into      8 X      7 BLACS grid
  Calculating block size based on n_basis =         1968 max_nprow =            8 max_npcol =            7
  ScaLAPACK block size set to:           16
  Allocating        0.590 MB for ovlp
  Allocating        0.590 MB for ham
  Allocating        0.590 MB for eigenvec
  Required Scalapack workspace - INTEGER:            1 REAL:             1
  Partitioning the integration grid into batches with parallel hashing+maxmin method.
  | Number of batches:    10592
  | Maximal batch size:     198
  | Minimal batch size:      16
  | Average batch size:     101.697
  | Standard deviation of batch sizes:      33.905

  Integration load balanced across     56 MPI tasks.
  Work distribution over tasks is as follows:
  Task      0 has      19240 integration points.
  Task      1 has      19245 integration points.
  Task      2 has      19235 integration points.
  Task      3 has      19420 integration points.
  Task      4 has      19182 integration points.
  Task      5 has      19253 integration points.
  Task      6 has      19100 integration points.
  Task      7 has      19296 integration points.
  Task      8 has      19260 integration points.
  Task      9 has      19204 integration points.
  Task     10 has      19323 integration points.
  Task     11 has      19182 integration points.
  Task     12 has      19199 integration points.
  Task     13 has      19179 integration points.
  Task     14 has      19330 integration points.
  Task     15 has      19353 integration points.
  Task     16 has      19088 integration points.
  Task     17 has      19319 integration points.
  Task     18 has      19202 integration points.
  Task     19 has      19246 integration points.
  Task     20 has      19197 integration points.
  Task     21 has      19340 integration points.
  Task     22 has      19222 integration points.
  Task     23 has      19172 integration points.
  Task     24 has      19306 integration points.
  Task     25 has      19213 integration points.
  Task     26 has      19179 integration points.
  Task     27 has      19133 integration points.
  Task     28 has      19270 integration points.
  Task     29 has      19260 integration points.
  Task     30 has      19210 integration points.
  Task     31 has      19287 integration points.
  Task     32 has      19231 integration points.
  Task     33 has      19328 integration points.
  Task     34 has      19113 integration points.
  Task     35 has      19334 integration points.
  Task     36 has      19217 integration points.
  Task     37 has      19215 integration points.
  Task     38 has      19292 integration points.
  Task     39 has      19139 integration points.
  Task     40 has      19218 integration points.
  Task     41 has      19176 integration points.
  Task     42 has      19340 integration points.
  Task     43 has      19232 integration points.
  Task     44 has      19212 integration points.
  Task     45 has      19345 integration points.
  Task     46 has      19202 integration points.
  Task     47 has      19298 integration points.
  Task     48 has      19144 integration points.
  Task     49 has      19269 integration points.
  Task     50 has      19223 integration points.
  Task     51 has      19222 integration points.
  Task     52 has      19254 integration points.
  Task     53 has      19163 integration points.
  Task     54 has      19197 integration points.
  Task     55 has      19167 integration points.
  Initializing partition tables, free-atom densities, potentials, etc. across the integration grid (initialize_grid_storage).
  | initialize_grid_storage: Actual outermost partition radius vs. multipole_radius_free
  | (-- VB: in principle, multipole_radius_free should be larger, hence this output)
  | Species        1: Confinement radius =              6.000000000000000 AA, multipole_radius_free =              6.071692442739658 AA.
  | Species        1: outer_partition_radius set to              6.071692442739658 AA .
  | Species        2: Confinement radius =              6.000000000000000 AA, multipole_radius_free =              6.029870734432609 AA.
  | Species        2: outer_partition_radius set to              6.029870734432609 AA .
  | The sparse table of interatomic distances needs     44.4200 kbyte instead of    32.7680 kbyte of memory.
  | Using the partition_type stratmann_smoother will reduce your memory usage.
  | Net number of integration points:  1077176
  | of which are non-zero points    :   858607
  Renormalizing the initial density to the exact electron count on the 3D integration grid.
  | Initial density: Formal number of electrons (from input files) :     274.0000000000
  | Integrated number of electrons on 3D grid     :     273.9995544996
  | Charge integration error                      :      -0.0004455004
  | Normalization factor for density and gradient :       1.0000016259
  Obtaining max. number of non-zero basis functions in each batch (get_n_compute_maxes).
  | Maximal number of non-zero basis functions:      900
  Selecting the method for density update.
  Loop over occupied states selected for charge density update.
  Hamiltonian matrix size:
  | Size of matrix non-packed:               1937496
  | Size of matrix packed:         1255055
  Allocating        4.660 MB for KS_eigenvector
  use_local_index: Max. local matrix size =       743759
  Task:     0 matrix size:     192377
  Task:     1 matrix size:     174345
  Task:     2 matrix size:     309732
  Task:     3 matrix size:     263304
  Task:     4 matrix size:     374553
  Task:     5 matrix size:     657396
  Task:     6 matrix size:     696982
  Task:     7 matrix size:     225054
  Task:     8 matrix size:     350881
  Task:     9 matrix size:     444062
  Task:    10 matrix size:     572031
  Task:    11 matrix size:     614919
  Task:    12 matrix size:     706541
  Task:    13 matrix size:     707039
  Task:    14 matrix size:     316125
  Task:    15 matrix size:     285286
  Task:    16 matrix size:     268202
  Task:    17 matrix size:     743759
  Task:    18 matrix size:     730242
  Task:    19 matrix size:     681955
  Task:    20 matrix size:     654184
  Task:    21 matrix size:     405678
  Task:    22 matrix size:     173158
  Task:    23 matrix size:     257167
  Task:    24 matrix size:     683837
  Task:    25 matrix size:     664965
  Task:    26 matrix size:     507597
  Task:    27 matrix size:     415743
  Task:    28 matrix size:     416891
  Task:    29 matrix size:     553202
  Task:    30 matrix size:     599155
  Task:    31 matrix size:     275085
  Task:    32 matrix size:     494917
  Task:    33 matrix size:     145530
  Task:    34 matrix size:     305922
  Task:    35 matrix size:     571692
  Task:    36 matrix size:     715106
  Task:    37 matrix size:     729851
  Task:    38 matrix size:     343317
  Task:    39 matrix size:     424275
  Task:    40 matrix size:     182104
  Task:    41 matrix size:     249419
  Task:    42 matrix size:     623241
  Task:    43 matrix size:     580980
  Task:    44 matrix size:     548472
  Task:    45 matrix size:     518288
  Task:    46 matrix size:     437676
  Task:    47 matrix size:     344148
  Task:    48 matrix size:     296640
  Task:    49 matrix size:     669812
  Task:    50 matrix size:     478184
  Task:    51 matrix size:     259505
  Task:    52 matrix size:     369448
  Task:    53 matrix size:     350206
  Task:    54 matrix size:     264495
  Task:    55 matrix size:     183913
  Integrating Hamiltonian matrix: batch-based integration.
  Time summed over all CPUs for integration: real work      196.515 s, elapsed      323.530 s
  Time get_set_sparse_local_matrix_scalapack:     0.016613 s
  Start compute_balanced_batch_distribution
  Done load balancing, time needed:      0.012 s
  Integrating overlap matrix with loadbalancing
  Time summed over all CPUs for integration: real work       57.154 s, elapsed       64.732 s
  Time get_set_full_local_matrix_scalapack:     0.019422 s

  Updating Kohn-Sham eigenvalues and eigenvectors using ELSI and the ELPA eigensolver.
  Overlap matrix is not singular
  | Lowest and highest eigenvalues :  0.11E+02,  0.83E-04
  Finished singularity check of overlap matrix
  | Time :     0.172 s
  Finished Cholesky decomposition
  | Time :     0.032 s
  Finished transformation to standard eigenproblem
  | Time :     0.029 s
  Starting ELPA eigensolver
  Finished solving standard eigenproblem
  | Time :     0.159 s
  Finished back-transformation of eigenvectors
  | Time :     0.007 s

  Obtaining occupation numbers and chemical potential using ELSI.
  | Chemical potential (Fermi level):    -8.03012020 eV
  Writing Kohn-Sham eigenvalues.

  State    Occupation    Eigenvalue [Ha]    Eigenvalue [eV]
      1       2.00000         -10.176154         -276.90724
      2       2.00000         -10.176154         -276.90724
      3       2.00000         -10.175237         -276.88229
      4       2.00000         -10.175235         -276.88222
      5       2.00000         -10.175160         -276.88018
      6       2.00000         -10.175159         -276.88018
      7       2.00000         -10.173368         -276.83144
      8       2.00000         -10.173364         -276.83132
      9       2.00000         -10.172858         -276.81754
     10       2.00000         -10.172858         -276.81754
     11       2.00000         -10.172326         -276.80306
     12       2.00000         -10.172326         -276.80306
     13       2.00000         -10.171702         -276.78611
     14       2.00000         -10.171702         -276.78610
     15       2.00000         -10.171557         -276.78214
     16       2.00000         -10.171557         -276.78214
     17       2.00000         -10.170619         -276.75663
     18       2.00000         -10.170619         -276.75663
     19       2.00000         -10.170454         -276.75214
     20       2.00000         -10.170454         -276.75214
     21       2.00000         -10.170020         -276.74032
     22       2.00000         -10.170020         -276.74032
     23       2.00000         -10.169481         -276.72567
     24       2.00000         -10.169480         -276.72563
     25       2.00000         -10.168665         -276.70344
     26       2.00000         -10.168665         -276.70344
     27       2.00000         -10.168285         -276.69312
     28       2.00000         -10.168285         -276.69312
     29       2.00000         -10.167598         -276.67442
     30       2.00000         -10.167598         -276.67441
     31       2.00000         -10.167211         -276.66388
     32       2.00000         -10.167211         -276.66388
     33       2.00000         -10.164626         -276.59356
     34       2.00000         -10.164626         -276.59355
     35       2.00000         -10.164256         -276.58347
     36       2.00000         -10.164255         -276.58346
     37       2.00000         -10.163687         -276.56800
     38       2.00000         -10.163687         -276.56800
     39       2.00000         -10.160382         -276.47806
     40       2.00000         -10.160382         -276.47805
     41       2.00000         -10.157019         -276.38655
     42       2.00000         -10.157019         -276.38655
     43       2.00000          -1.026065          -27.92065
     44       2.00000          -1.020789          -27.77709
     45       2.00000          -1.014695          -27.61127
     46       2.00000          -0.991699          -26.98551
     47       2.00000          -0.987087          -26.85999
     48       2.00000          -0.986639          -26.84781
     49       2.00000          -0.964154          -26.23596
     50       2.00000          -0.946622          -25.75890
     51       2.00000          -0.939885          -25.57558
     52       2.00000          -0.928980          -25.27883
     53       2.00000          -0.921832          -25.08431
     54       2.00000          -0.915298          -24.90653
     55       2.00000          -0.906171          -24.65815
     56       2.00000          -0.901720          -24.53705
     57       2.00000          -0.882504          -24.01415
     58       2.00000          -0.881577          -23.98892
     59       2.00000          -0.869786          -23.66807
     60       2.00000          -0.863190          -23.48860
     61       2.00000          -0.860327          -23.41069
     62       2.00000          -0.856042          -23.29410
     63       2.00000          -0.838415          -22.81442
     64       2.00000          -0.808228          -21.99300
     65       2.00000          -0.782901          -21.30383
     66       2.00000          -0.779288          -21.20550
     67       2.00000          -0.776956          -21.14205
     68       2.00000          -0.772464          -21.01982
     69       2.00000          -0.763104          -20.76511
     70       2.00000          -0.762937          -20.76057
     71       2.00000          -0.746764          -20.32048
     72       2.00000          -0.740639          -20.15382
     73       2.00000          -0.734308          -19.98154
     74       2.00000          -0.718675          -19.55615
     75       2.00000          -0.716504          -19.49708
     76       2.00000          -0.687963          -18.72041
     77       2.00000          -0.687516          -18.70826
     78       2.00000          -0.678494          -18.46275
     79       2.00000          -0.676834          -18.41758
     80       2.00000          -0.672708          -18.30532
     81       2.00000          -0.661802          -18.00856
     82       2.00000          -0.661323          -17.99551
     83       2.00000          -0.654937          -17.82174
     84       2.00000          -0.642180          -17.47462
     85       2.00000          -0.622456          -16.93789
     86       2.00000          -0.620865          -16.89460
     87       2.00000          -0.616508          -16.77604
     88       2.00000          -0.614422          -16.71929
     89       2.00000          -0.612026          -16.65407
     90       2.00000          -0.609853          -16.59494
     91       2.00000          -0.603028          -16.40923
     92       2.00000          -0.602596          -16.39747
     93       2.00000          -0.594156          -16.16779
     94       2.00000          -0.587095          -15.97566
     95       2.00000          -0.581702          -15.82892
     96       2.00000          -0.578051          -15.72958
     97       2.00000          -0.577908          -15.72568
     98       2.00000          -0.568316          -15.46466
     99       2.00000          -0.567344          -15.43821
    100       2.00000          -0.566964          -15.42788
    101       2.00000          -0.564225          -15.35334
    102       2.00000          -0.556547          -15.14441
    103       2.00000          -0.548536          -14.92642
    104       2.00000          -0.544649          -14.82066
    105       2.00000          -0.541292          -14.72930
    106       2.00000          -0.536966          -14.61159
    107       2.00000          -0.531376          -14.45946
    108       2.00000          -0.531148          -14.45328
    109       2.00000          -0.529340          -14.40407
    110       2.00000          -0.523206          -14.23716
    111       2.00000          -0.522224          -14.21043
    112       2.00000          -0.519195          -14.12802
    113       2.00000          -0.517826          -14.09078
    114       2.00000          -0.514987          -14.01352
    115       2.00000          -0.503718          -13.70687
    116       2.00000          -0.502938          -13.68564
    117       2.00000          -0.498516          -13.56530
    118       2.00000          -0.498467          -13.56399
    119       2.00000          -0.486770          -13.24570
    120       2.00000          -0.480598          -13.07773
    121       2.00000          -0.479644          -13.05179
    122       2.00000          -0.477355          -12.98948
    123       2.00000          -0.476977          -12.97920
    124       2.00000          -0.456291          -12.41631
    125       2.00000          -0.445510          -12.12296
    126       2.00000          -0.444033          -12.08274
    127       2.00000          -0.434839          -11.83256
    128       2.00000          -0.431084          -11.73038
    129       2.00000          -0.417700          -11.36618
    130       2.00000          -0.417362          -11.35700
    131       2.00000          -0.398155          -10.83436
    132       2.00000          -0.397445          -10.81503
    133       2.00000          -0.384603          -10.46558
    134       2.00000          -0.371830          -10.11801
    135       2.00000          -0.368190          -10.01897
    136       2.00000          -0.361639           -9.84069
    137       2.00000          -0.341975           -9.30562
    138       0.00000          -0.276880           -7.53429
    139       0.00000          -0.250890           -6.82707
    140       0.00000          -0.243085           -6.61467
    141       0.00000          -0.240178           -6.53557
    142       0.00000          -0.228321           -6.21294
    143       0.00000          -0.217239           -5.91137
    144       0.00000          -0.214496           -5.83672
    145       0.00000          -0.191790           -5.21887
    146       0.00000          -0.190032           -5.17103
    147       0.00000          -0.167904           -4.56889
    148       0.00000          -0.167889           -4.56849
    149       0.00000          -0.160181           -4.35873
    150       0.00000          -0.154773           -4.21160
    151       0.00000          -0.139204           -3.78794
    152       0.00000          -0.104654           -2.84777
    153       0.00000          -0.074915           -2.03855
    154       0.00000          -0.072294           -1.96722
    155       0.00000          -0.072256           -1.96618
    156       0.00000          -0.071140           -1.93583
    157       0.00000          -0.070442           -1.91681
    158       0.00000          -0.067245           -1.82984
    159       0.00000          -0.064286           -1.74931
    160       0.00000          -0.062199           -1.69253
    161       0.00000          -0.054993           -1.49643
    162       0.00000          -0.050693           -1.37943
    163       0.00000          -0.050518           -1.37466
    164       0.00000          -0.042538           -1.15752
    165       0.00000          -0.034749           -0.94556
    166       0.00000          -0.031158           -0.84785
    167       0.00000          -0.027646           -0.75229
    168       0.00000          -0.023814           -0.64800
    169       0.00000          -0.022258           -0.60567
    170       0.00000          -0.018249           -0.49658
    171       0.00000          -0.017515           -0.47660
    172       0.00000          -0.012649           -0.34420
    173       0.00000          -0.010294           -0.28012
    174       0.00000          -0.007867           -0.21408
    175       0.00000          -0.004326           -0.11771
    176       0.00000          -0.003537           -0.09624
    177       0.00000          -0.001554           -0.04228
    178       0.00000           0.003313            0.09014
    179       0.00000           0.005929            0.16133
    180       0.00000           0.006931            0.18861
    181       0.00000           0.009518            0.25901
    182       0.00000           0.012859            0.34992
    183       0.00000           0.014064            0.38271
    184       0.00000           0.019502            0.53068
    185       0.00000           0.022769            0.61957
    186       0.00000           0.023069            0.62775
    187       0.00000           0.026442            0.71953
    188       0.00000           0.027341            0.74398
    189       0.00000           0.027850            0.75783
    190       0.00000           0.031066            0.84535
    191       0.00000           0.033594            0.91415
    192       0.00000           0.036772            1.00062
    193       0.00000           0.036971            1.00602
    194       0.00000           0.039401            1.07216
    195       0.00000           0.042953            1.16881
    196       0.00000           0.043508            1.18392
    197       0.00000           0.045426            1.23610
    198       0.00000           0.046527            1.26606
    199       0.00000           0.049008            1.33358
    200       0.00000           0.056871            1.54754
    201       0.00000           0.058002            1.57831
    202       0.00000           0.059038            1.60650
    203       0.00000           0.063900            1.73880
    204       0.00000           0.065389            1.77933
    205       0.00000           0.068488            1.86364
    206       0.00000           0.069213            1.88339
    207       0.00000           0.070624            1.92178
    208       0.00000           0.071153            1.93618
    209       0.00000           0.072476            1.97216
    210       0.00000           0.075469            2.05362
    211       0.00000           0.079306            2.15802
    212       0.00000           0.080534            2.19145
    213       0.00000           0.082253            2.23821
    214       0.00000           0.084894            2.31009
    215       0.00000           0.086059            2.34179
    216       0.00000           0.088035            2.39555
    217       0.00000           0.091402            2.48719
    218       0.00000           0.093779            2.55184
    219       0.00000           0.095971            2.61149
    220       0.00000           0.096740            2.63243
    221       0.00000           0.097491            2.65287
    222       0.00000           0.102424            2.78711
    223       0.00000           0.103499            2.81635
    224       0.00000           0.107862            2.93508
    225       0.00000           0.108699            2.95785
    226       0.00000           0.109736            2.98607
    227       0.00000           0.111770            3.04142
    228       0.00000           0.113662            3.09291
    229       0.00000           0.117295            3.19175
    230       0.00000           0.119772            3.25915
    231       0.00000           0.121397            3.30338
    232       0.00000           0.122553            3.33483
    233       0.00000           0.128004            3.48318
    234       0.00000           0.128733            3.50302
    235       0.00000           0.131761            3.58539
    236       0.00000           0.135310            3.68196
    237       0.00000           0.139932            3.80774
    238       0.00000           0.142399            3.87486
    239       0.00000           0.146568            3.98831
    240       0.00000           0.146861            3.99630
    241       0.00000           0.147477            4.01306
    242       0.00000           0.148882            4.05130
    243       0.00000           0.151113            4.11200
    244       0.00000           0.152497            4.14965
    245       0.00000           0.153457            4.17578
    246       0.00000           0.157697            4.29115
    247       0.00000           0.158489            4.31271
    248       0.00000           0.158752            4.31985
    249       0.00000           0.161392            4.39169
    250       0.00000           0.163858            4.45880
    251       0.00000           0.165882            4.51387
    252       0.00000           0.166867            4.54067
    253       0.00000           0.169308            4.60711
    254       0.00000           0.171323            4.66195
    255       0.00000           0.171473            4.66602
    256       0.00000           0.175344            4.77134
    257       0.00000           0.178992            4.87063
    258       0.00000           0.180818            4.92032
    259       0.00000           0.181372            4.93539
    260       0.00000           0.188442            5.12777
    261       0.00000           0.190153            5.17434
    262       0.00000           0.191159            5.20171
    263       0.00000           0.192457            5.23703
    264       0.00000           0.196473            5.34630
    265       0.00000           0.198213            5.39364
    266       0.00000           0.200237            5.44871
    267       0.00000           0.203837            5.54670
    268       0.00000           0.204093            5.55365
    269       0.00000           0.208582            5.67581
    270       0.00000           0.210342            5.72370
    271       0.00000           0.213385            5.80650
    272       0.00000           0.213899            5.82050
    273       0.00000           0.218050            5.93343
    274       0.00000           0.219548            5.97421
    275       0.00000           0.223137            6.07187
    276       0.00000           0.224722            6.11499
    277       0.00000           0.227612            6.19363
    278       0.00000           0.229041            6.23253
    279       0.00000           0.230916            6.28354
    280       0.00000           0.230991            6.28559
    281       0.00000           0.232002            6.31309
    282       0.00000           0.233448            6.35243
    283       0.00000           0.236671            6.44014
    284       0.00000           0.238843            6.49925
    285       0.00000           0.244290            6.64746
    286       0.00000           0.245538            6.68142
    287       0.00000           0.246796            6.71565
    288       0.00000           0.246810            6.71604
    289       0.00000           0.257205            6.99891
    290       0.00000           0.258017            7.02100
    291       0.00000           0.260480            7.08803
    292       0.00000           0.263645            7.17415
    293       0.00000           0.267690            7.28423
    294       0.00000           0.268070            7.29455
    295       0.00000           0.274788            7.47736
    296       0.00000           0.276530            7.52475

  Highest occupied state (VBM) at     -9.30561544 eV
  | Occupation number:      2.00000000

  Lowest unoccupied state (CBM) at    -7.53428895 eV
  | Occupation number:      0.00000000

  Overall HOMO-LUMO gap:      1.77132649 eV.
  Calculating total energy contributions from superposition of free atom densities.

  Total energy components:
  | Sum of eigenvalues            :        -977.62353839 Ha      -26602.48999943 eV
  | XC energy correction          :        -230.71493918 Ha       -6278.07291991 eV
  | XC potential correction       :         296.35792188 Ha        8064.30936197 eV
  | Free-atom electrostatic energy:        -703.06406028 Ha      -19131.34647254 eV
  | Hartree energy correction     :           0.00000000 Ha           0.00000000 eV
  | Entropy correction            :           0.00000000 Ha           0.00000000 eV
  | ---------------------------
  | Total energy                  :       -1615.04461597 Ha      -43947.60002992 eV
  | Total energy, T -> 0          :       -1615.04461597 Ha      -43947.60002992 eV  <-- do not rely on this value for anything but (periodic) metals
  | Electronic free energy        :       -1615.04461597 Ha      -43947.60002992 eV

  Derived energy quantities:
  | Kinetic energy                :        1601.19783845 Ha       43570.81004266 eV
  | Electrostatic energy          :       -2985.52751525 Ha      -81240.33715267 eV
  | Energy correction for multipole
  | error in Hartree potential    :           0.00000000 Ha           0.00000000 eV
  | Sum of eigenvalues per atom                           :        -415.66390624 eV
  | Total energy (T->0) per atom                          :        -686.68125047 eV  <-- do not rely on this value for anything but (periodic) metals
  | Electronic free energy per atom                       :        -686.68125047 eV
  Initialize hartree_potential_storage
  Max. number of atoms included in rho_multipole:           64

  End scf initialization - timings             :  max(cpu_time)    wall_clock(cpu1)
  | Time for scf. initialization               :        9.376 s           9.529 s
  | Boundary condition initialization          :        0.000 s           0.003 s
  | Integration                                :        7.001 s           7.007 s
  | Solution of K.-S. eqns.                    :        0.425 s           0.535 s
  | Grid partitioning                          :        1.003 s           1.007 s
  | Preloading free-atom quantities on grid    :        0.013 s           0.016 s
  | Free-atom superposition energy             :        0.081 s           0.082 s
  | Total energy evaluation                    :        0.001 s           0.004 s

  Partial memory accounting:
  | Current value for overall tracked memory usage on task 0  :           7.200 MB
  | Peak value for overall tracked memory usage on task 0     :          28.071 MB after allocating zora_vector2
  | Largest tracked array allocation on task 0 so far         :           6.480 MB  when allocating hamiltonian_shell
  Note:  These values currently only include a subset of arrays which are explicitly tracked.
  The "true" memory usage will be greater.
------------------------------------------------------------

------------------------------------------------------------
          Begin self-consistency iteration #    1

  Date     :  20210620, Time     :  174750.150
------------------------------------------------------------
  Evaluating new KS density.
  Integration grid: deviation in total charge (<rho> - N_e) =   1.136868E-13
  Pulay mixing of updated and previous charge densities.

  Evaluating partitioned Hartree potential by multipole expansion.
  | Analytical far-field extrapolation by fixed multipoles:
  | Hartree multipole sum: apparent total charge =  -0.457459E-03
  Summing up the Hartree potential with load balancing.
  Time summed over all CPUs for potential: real work       40.141 s, elapsed       56.291 s
  | RMS charge density error from multipole expansion :   0.158440E-01

  Start compute_balanced_batch_distribution
  Done load balancing, time needed:      0.010 s
  Integrating Hamiltonian matrix: batch-based integration with load balancing
  Time summed over all CPUs for integration: real work      210.955 s, elapsed      231.555 s
  Time get_set_full_local_matrix_scalapack:     0.019527 s
  Start compute_balanced_batch_distribution
  Done load balancing, time needed:      0.010 s

  Updating Kohn-Sham eigenvalues and eigenvectors using ELSI and the ELPA eigensolver.
  Finished transformation to standard eigenproblem
  | Time :     0.032 s
  Starting ELPA eigensolver
  Finished solving standard eigenproblem
  | Time :     0.157 s
  Finished back-transformation of eigenvectors
  | Time :     0.008 s

  Obtaining occupation numbers and chemical potential using ELSI.
  | Chemical potential (Fermi level):    -5.68600496 eV
  Writing Kohn-Sham eigenvalues.

  State    Occupation    Eigenvalue [Ha]    Eigenvalue [eV]
      1       2.00000          -9.990942         -271.86736
      2       2.00000          -9.990942         -271.86736
      3       2.00000          -9.987495         -271.77356
      4       2.00000          -9.987495         -271.77356
      5       2.00000          -9.986595         -271.74906
      6       2.00000          -9.986595         -271.74906
      7       2.00000          -9.984496         -271.69195
      8       2.00000          -9.984496         -271.69195
      9       2.00000          -9.981701         -271.61591
     10       2.00000          -9.981701         -271.61590
     11       2.00000          -9.975857         -271.45689
     12       2.00000          -9.975857         -271.45689
     13       2.00000          -9.972640         -271.36933
     14       2.00000          -9.972640         -271.36933
     15       2.00000          -9.971920         -271.34976
     16       2.00000          -9.971920         -271.34975
     17       2.00000          -9.969604         -271.28673
     18       2.00000          -9.969604         -271.28672
     19       2.00000          -9.965996         -271.18854
     20       2.00000          -9.965995         -271.18852
     21       2.00000          -9.961585         -271.06852
     22       2.00000          -9.961585         -271.06851
     23       2.00000          -9.956295         -270.92456
     24       2.00000          -9.956294         -270.92456
     25       2.00000          -9.952310         -270.81613
     26       2.00000          -9.952310         -270.81613
     27       2.00000          -9.951963         -270.80670
     28       2.00000          -9.951963         -270.80670
     29       2.00000          -9.951669         -270.79870
     30       2.00000          -9.951669         -270.79870
     31       2.00000          -9.949767         -270.74693
     32       2.00000          -9.949767         -270.74693
     33       2.00000          -9.948900         -270.72335
     34       2.00000          -9.948900         -270.72335
     35       2.00000          -9.948686         -270.71751
     36       2.00000          -9.948685         -270.71750
     37       2.00000          -9.948443         -270.71091
     38       2.00000          -9.948443         -270.71091
     39       2.00000          -9.947913         -270.69647
     40       2.00000          -9.947912         -270.69647
     41       2.00000          -9.947409         -270.68276
     42       2.00000          -9.947409         -270.68276
     43       2.00000          -0.882045          -24.00166
     44       2.00000          -0.878421          -23.90305
     45       2.00000          -0.866228          -23.57127
     46       2.00000          -0.845697          -23.01259
     47       2.00000          -0.837728          -22.79573
     48       2.00000          -0.837657          -22.79381
     49       2.00000          -0.821802          -22.36237
     50       2.00000          -0.797599          -21.70377
     51       2.00000          -0.788040          -21.44367
     52       2.00000          -0.784410          -21.34489
     53       2.00000          -0.779034          -21.19860
     54       2.00000          -0.773215          -21.04025
     55       2.00000          -0.763677          -20.78070
     56       2.00000          -0.758161          -20.63061
     57       2.00000          -0.737529          -20.06920
     58       2.00000          -0.735230          -20.00662
     59       2.00000          -0.724482          -19.71416
     60       2.00000          -0.716223          -19.48941
     61       2.00000          -0.714562          -19.44423
     62       2.00000          -0.707455          -19.25084
     63       2.00000          -0.692305          -18.83857
     64       2.00000          -0.668493          -18.19061
     65       2.00000          -0.637650          -17.35134
     66       2.00000          -0.635568          -17.29469
     67       2.00000          -0.634910          -17.27679
     68       2.00000          -0.633774          -17.24586
     69       2.00000          -0.625180          -17.01201
     70       2.00000          -0.625137          -17.01083
     71       2.00000          -0.611475          -16.63908
     72       2.00000          -0.601496          -16.36753
     73       2.00000          -0.596416          -16.22929
     74       2.00000          -0.585047          -15.91995
     75       2.00000          -0.572005          -15.56505
     76       2.00000          -0.552138          -15.02444
     77       2.00000          -0.550252          -14.97312
     78       2.00000          -0.546982          -14.88414
     79       2.00000          -0.545518          -14.84429
     80       2.00000          -0.527037          -14.34140
     81       2.00000          -0.521310          -14.18557
     82       2.00000          -0.519188          -14.12782
     83       2.00000          -0.514627          -14.00372
     84       2.00000          -0.502649          -13.67778
     85       2.00000          -0.493989          -13.44212
     86       2.00000          -0.491810          -13.38284
     87       2.00000          -0.490260          -13.34064
     88       2.00000          -0.476044          -12.95382
     89       2.00000          -0.473279          -12.87857
     90       2.00000          -0.468969          -12.76130
     91       2.00000          -0.463844          -12.62183
     92       2.00000          -0.458364          -12.47272
     93       2.00000          -0.453588          -12.34275
     94       2.00000          -0.453481          -12.33984
     95       2.00000          -0.443958          -12.08071
     96       2.00000          -0.443802          -12.07646
     97       2.00000          -0.442662          -12.04546
     98       2.00000          -0.438115          -11.92171
     99       2.00000          -0.435704          -11.85610
    100       2.00000          -0.432702          -11.77443
    101       2.00000          -0.429695          -11.69261
    102       2.00000          -0.425907          -11.58952
    103       2.00000          -0.423924          -11.53555
    104       2.00000          -0.422916          -11.50813
    105       2.00000          -0.414653          -11.28329
    106       2.00000          -0.409737          -11.14952
    107       2.00000          -0.407959          -11.10113
    108       2.00000          -0.406055          -11.04932
    109       2.00000          -0.394282          -10.72896
    110       2.00000          -0.389757          -10.60582
    111       2.00000          -0.386892          -10.52786
    112       2.00000          -0.386026          -10.50429
    113       2.00000          -0.384842          -10.47208
    114       2.00000          -0.378734          -10.30589
[...]
    126       2.00000          -0.275380           -7.49348
    127       2.00000          -0.272140           -7.40532
    128       2.00000          -0.269029           -7.32064
    129       2.00000          -0.254604           -6.92812
    130       2.00000          -0.254289           -6.91955
    131       2.00000          -0.233031           -6.34111
    132       2.00000          -0.231877           -6.30969
    133       2.00000          -0.220209           -5.99219
    134       2.00000          -0.207060           -5.63438
    135       2.00000          -0.200287           -5.45009
    136       2.00000          -0.193574           -5.26741
    137       2.00000          -0.173354           -4.71720
    138       0.00000          -0.113282           -3.08257
    139       0.00000          -0.085679           -2.33145
    140       0.00000          -0.078609           -2.13905
    141       0.00000          -0.074611           -2.03027
    142       0.00000          -0.063162           -1.71873
    143       0.00000          -0.055571           -1.51217
    144       0.00000          -0.050755           -1.38111
    145       0.00000          -0.031513           -0.85752
    146       0.00000          -0.028106           -0.76480
    147       0.00000          -0.007616           -0.20723
    148       0.00000          -0.006572           -0.17883
    149       0.00000          -0.004075           -0.11089
    150       0.00000          -0.003872           -0.10536
    151       0.00000          -0.003693           -0.10049
    152       0.00000          -0.000209           -0.00569
    153       0.00000           0.000524            0.01426
    154       0.00000           0.002392            0.06508
    155       0.00000           0.010393            0.28280
    156       0.00000           0.011624            0.31632
    157       0.00000           0.012138            0.33029
    158       0.00000           0.020892            0.56849
    159       0.00000           0.023168            0.63044
    160       0.00000           0.024943            0.67872
    161       0.00000           0.029655            0.80695
    162       0.00000           0.035727            0.97219
    163       0.00000           0.045370            1.23457
    164       0.00000           0.047924            1.30408
    165       0.00000           0.058723            1.59793
    166       0.00000           0.059646            1.62306
    167       0.00000           0.068892            1.87466
    168       0.00000           0.071776            1.95312
    169       0.00000           0.072821            1.98155
    170       0.00000           0.076331            2.07708
    171       0.00000           0.084383            2.29617
    172       0.00000           0.085409            2.32411
    173       0.00000           0.088054            2.39607
    174       0.00000           0.089333            2.43088
    175       0.00000           0.092310            2.51189
    176       0.00000           0.098415            2.67800
    177       0.00000           0.099323            2.70271
    178       0.00000           0.099575            2.70958
    179       0.00000           0.103733            2.82271
    180       0.00000           0.103846            2.82579
    181       0.00000           0.105724            2.87689
    182       0.00000           0.108193            2.94409
    183       0.00000           0.109921            2.99110
    184       0.00000           0.119611            3.25478
    185       0.00000           0.123054            3.34847
    186       0.00000           0.123529            3.36140
    187       0.00000           0.127219            3.46180
    188       0.00000           0.131282            3.57237
    189       0.00000           0.133409            3.63025
    190       0.00000           0.135958            3.69961
    191       0.00000           0.136813            3.72288
    192       0.00000           0.136846            3.72378
    193       0.00000           0.139583            3.79824
    194       0.00000           0.145484            3.95881
    195       0.00000           0.147696            4.01902
    196       0.00000           0.152484            4.14929
    197       0.00000           0.153976            4.18991
    198       0.00000           0.157171            4.27685
    199       0.00000           0.161916            4.40596
    200       0.00000           0.162467            4.42096
    201       0.00000           0.164175            4.46742
    202       0.00000           0.165273            4.49731
    203       0.00000           0.168046            4.57277
    204       0.00000           0.170273            4.63336
    205       0.00000           0.171444            4.66523
    206       0.00000           0.172059            4.68197
    207       0.00000           0.172739            4.70048
    208       0.00000           0.173839            4.73039
    209       0.00000           0.181259            4.93231
    210       0.00000           0.181545            4.94009
    211       0.00000           0.182758            4.97309
    212       0.00000           0.182973            4.97896
    213       0.00000           0.188947            5.14150
    214       0.00000           0.189544            5.15777
    215       0.00000           0.194004            5.27913
    216       0.00000           0.194874            5.30278
    217       0.00000           0.197523            5.37488
    218       0.00000           0.198449            5.40007
    219       0.00000           0.200479            5.45532
    220       0.00000           0.203183            5.52888
    221       0.00000           0.207859            5.65612
    222       0.00000           0.209994            5.71423
    223       0.00000           0.213760            5.81672
    224       0.00000           0.215545            5.86527
    225       0.00000           0.215967            5.87676
    226       0.00000           0.217633            5.92209
    227       0.00000           0.217911            5.92965
    228       0.00000           0.223770            6.08910
    229       0.00000           0.223943            6.09381
    230       0.00000           0.227026            6.17769
    231       0.00000           0.227509            6.19083
    232       0.00000           0.230204            6.26417
    233       0.00000           0.231207            6.29145
    234       0.00000           0.233228            6.34645
    235       0.00000           0.234127            6.37093
    236       0.00000           0.235314            6.40321
    237       0.00000           0.237460            6.46161
    238       0.00000           0.237585            6.46502
    239       0.00000           0.240999            6.55791
    240       0.00000           0.247504            6.73492
    241       0.00000           0.247638            6.73859
    242       0.00000           0.249835            6.79837
    243       0.00000           0.250088            6.80523
    244       0.00000           0.252153            6.86145
    245       0.00000           0.253833            6.90715
    246       0.00000           0.255050            6.94027
    247       0.00000           0.255558            6.95409
    248       0.00000           0.256049            6.96745
    249       0.00000           0.262108            7.13232
    250       0.00000           0.264748            7.20417
    251       0.00000           0.268107            7.29558
    252       0.00000           0.268986            7.31949
    253       0.00000           0.270162            7.35149
    254       0.00000           0.277830            7.56015
    255       0.00000           0.279116            7.59513
    256       0.00000           0.281894            7.67072
    257       0.00000           0.282966            7.69990
    258       0.00000           0.286080            7.78465
    259       0.00000           0.292138            7.94949
    260       0.00000           0.292598            7.96199
    261       0.00000           0.293847            7.99597
    262       0.00000           0.297388            8.09233
    263       0.00000           0.298690            8.12777
    264       0.00000           0.299210            8.14192
    265       0.00000           0.301231            8.19690
    266       0.00000           0.301763            8.21138
    267       0.00000           0.309347            8.41775
    268       0.00000           0.311714            8.48216
    269       0.00000           0.313051            8.51855
    270       0.00000           0.313271            8.52454
    271       0.00000           0.321671            8.75311
    272       0.00000           0.325500            8.85730
    273       0.00000           0.326865            8.89444
    274       0.00000           0.329618            8.96935
    275       0.00000           0.330794            9.00136
    276       0.00000           0.331366            9.01693
    277       0.00000           0.331729            9.02680
    278       0.00000           0.334308            9.09697
    279       0.00000           0.337056            9.17175
    280       0.00000           0.347935            9.46780
    281       0.00000           0.349382            9.50717
    282       0.00000           0.357121            9.71776
    283       0.00000           0.358273            9.74911
    284       0.00000           0.359427            9.78050
    285       0.00000           0.363612            9.89438
    286       0.00000           0.365988            9.95905
    287       0.00000           0.367049            9.98790
    288       0.00000           0.368158           10.01810
    289       0.00000           0.369006           10.04116
    290       0.00000           0.370084           10.07049
    291       0.00000           0.375611           10.22089
    292       0.00000           0.377997           10.28581
    293       0.00000           0.383895           10.44630
    294       0.00000           0.384576           10.46485
    295       0.00000           0.388462           10.57060
    296       0.00000           0.393961           10.72021

  Highest occupied state (VBM) at     -4.71719679 eV
  | Occupation number:      2.00000000

  Lowest unoccupied state (CBM) at    -3.08256760 eV
  | Occupation number:      0.00000000

  Overall HOMO-LUMO gap:      1.63462919 eV.

  Total energy components:
  | Sum of eigenvalues            :        -919.00837731 Ha      -25007.49031380 eV
  | XC energy correction          :        -234.78798254 Ha       -6388.90606884 eV
  | XC potential correction       :         301.62224235 Ha        8207.55881047 eV
  | Free-atom electrostatic energy:        -703.06406028 Ha      -19131.34647254 eV
  | Hartree energy correction     :         -57.90521490 Ha       -1575.68106732 eV
  | Entropy correction            :           0.00000000 Ha           0.00000000 eV
  | ---------------------------
  | Total energy                  :       -1613.14339269 Ha      -43895.86511202 eV
  | Total energy, T -> 0          :       -1613.14339269 Ha      -43895.86511202 eV  <-- do not rely on this value for anything but (periodic) metals
  | Electronic free energy        :       -1613.14339269 Ha      -43895.86511202 eV

  Derived energy quantities:
  | Kinetic energy                :        1609.13841775 Ha       43786.88419916 eV
  | Electrostatic energy          :       -2987.49382790 Ha      -81293.84324235 eV
  | Energy correction for multipole
  | error in Hartree potential    :          -0.20088489 Ha          -5.46635591 eV
  | Sum of eigenvalues per atom                           :        -390.74203615 eV
  | Total energy (T->0) per atom                          :        -685.87289238 eV  <-- do not rely on this value for anything but (periodic) metals
  | Electronic free energy per atom                       :        -685.87289238 eV
  End evaluation of scaled ZORA corrections.
  | Time for scaled ZORA corrections           :        6.364 s           6.365 s
------------------------------------------------------------

  Energy and forces in a compact form:
  | Total energy uncorrected      :         -0.438958651120213E+05 eV
  | Total energy corrected        :         -0.438958651120213E+05 eV  <-- do not rely on this value for anything but (periodic) metals
  | Electronic free energy        :         -0.438958651120213E+05 eV

  ------------------------------------ 
  Start decomposition of the XC Energy 
  ------------------------------------ 
  X and C from original XC functional choice 
  Hartree-Fock Energy :          0.000000000 Ha              0.000000000 eV
  X Energy            :       -225.549788113 Ha          -6137.522008229 eV
  C Energy            :         -9.238194426 Ha           -251.384060607 eV
  Total XC Energy     :       -234.787982539 Ha          -6388.906068836 eV
  ------------------------------------ 
  LDA X and C from self-consistent density 
  X Energy LDA        :       -204.333859521 Ha          -5560.207217802 eV
  C Energy LDA        :        -17.756464549 Ha           -483.177984198 eV
  ------------------------------------ 
  End decomposition of the XC Energy 
  ------------------------------------ 

------------------------------------------------------------

------------------------------------------------------------------------------
  Final output of selected total energy values:

  The following output summarizes some interesting total energy values
  at the end of a run (AFTER all relaxation, molecular dynamics, etc.).

  | Total energy of the DFT / Hartree-Fock s.c.f. calculation      :         -43895.865112021 eV
  | Final zero-broadening corrected energy (caution - metals only) :         -43895.865112021 eV
  | For reference only, the value of 1 Hartree used in FHI-aims is :             27.211384500 eV

  Before relying on these values, please be sure to understand exactly which
  total energy value is referred to by a given number. Different objects may
  all carry the same name 'total energy'. Definitions:

  Total energy of the DFT / Hartree-Fock s.c.f. calculation:
  | Note that this energy does not include ANY quantities calculated after the
  | s.c.f. cycle, in particular not ANY RPA, MP2, etc. many-body perturbation terms.
  | Scalar relativistic effects have been included in the 'scaled ZORA' approximation.

  Final zero-broadening corrected energy:
  | For metallic systems only, a broadening of the occupation numbers at the Fermi
  | level can be extrapolated back to zero broadening by an electron-gas inspired
  | formula. For all systems that are not real metals, this value can be
  | meaningless and should be avoided.

------------------------------------------------------------------------------
  Methods described in the following list of references were used in this FHI-aims run.
  If you publish the results, please make sure to cite these reference if they apply.
  FHI-aims is an academic code, and for our developers (often, Ph.D. students
  and postdocs), scientific credit in the community is essential.
  Thank you for helping us!

  For any use of FHI-aims, please cite:

    Volker Blum, Ralf Gehrke, Felix Hanke, Paula Havu, Ville Havu,
    Xinguo Ren, Karsten Reuter, and Matthias Scheffler
    'Ab initio molecular simulations with numeric atom-centered orbitals'
    Computer Physics Communications 180, 2175-2196 (2009)
    http://dx.doi.org/10.1016/j.cpc.2009.06.022


  The scalable eigensolver library ELPA was used in your run.
  ELPA is essential especially for large systems on hundreds or thousands of CPUs.
  For ELPA, please cite:

    Andreas Marek, Volker Blum, Rainer Johanni, Ville Havu, Bruno Lang,
    Thomas Auckenthaler, Alexander Heinecke, Hans-Joachim Bungartz, and Hermann Lederer,
    'The ELPA Library - Scalable Parallel Eigenvalue Solutions
    for Electronic Structure Theory and Computational Science'
    The Journal of Physics: Condensed Matter 26, 213201 (2014).
    http://dx.doi.org/10.1088/0953-8984/26/21/213201


  The ELSI infrastructure was used in your run to solve the Kohn-Sham electronic structure.
  Please check out http://elsi-interchange.org to learn more.
  If scalability is important for your project, please acknowledge ELSI by citing:

    V. W-z. Yu, F. Corsetti, A. Garcia, W. P. Huhn, M. Jacquelin, W. Jia,
    B. Lange, L. Lin, J. Lu, W. Mi, A. Seifitokaldani, A. Vazquez-Mayagoitia,
    C. Yang, H. Yang, and V. Blum
    'ELSI: A unified software interface for Kohn-Sham electronic structure solvers'
    Computer Physics Communications 222, 267-285 (2018).
    http://dx.doi.org/10.1016/j.cpc.2017.09.007


  For the real-space grid partitioning and parallelization used in this calculation, please cite:

    Ville Havu, Volker Blum, Paula Havu, and Matthias Scheffler,
    'Efficient O(N) integration for all-electron electronic structure calculation'
    'using numerically tabulated basis functions'
    Journal of Computational Physics 228, 8367-8379 (2009).
    http://dx.doi.org/10.1016/j.jcp.2009.08.008

  Of course, there are many other important community references, e.g., those cited in the
  above references. Our list is limited to references that describe implementations in the
  FHI-aims code. The reason is purely practical (length of this list) - please credit others as well.

------------------------------------------------------------
          Leaving FHI-aims.
          Date     :  20210620, Time     :  174955.847

          Computational steps:
          | Number of self-consistency cycles          :           17
          | Number of SCF (re)initializations          :            1

          Detailed time accounting                     :  max(cpu_time)    wall_clock(cpu1)
          | Total time                                 :      135.316 s         135.614 s
          | Preparation time                           :        0.201 s           0.202 s
          | Boundary condition initalization           :        0.000 s           0.003 s
          | Grid partitioning                          :        1.003 s           1.007 s
          | Preloading free-atom quantities on grid    :        0.013 s           0.016 s
          | Free-atom superposition energy             :        0.081 s           0.082 s
          | Total time for integrations                :       74.989 s          74.998 s
          | Total time for solution of K.-S. equations :        4.740 s           4.859 s
          | Total time for density update              :       32.475 s          32.421 s
          | Total time for mixing                      :        0.182 s           0.183 s
          | Total time for Hartree multipole update    :        0.222 s           0.232 s
          | Total time for Hartree multipole sum       :       13.952 s          13.957 s
          | Total time for total energy evaluation     :        0.008 s           0.034 s
          | Total time for scaled ZORA corrections     :        6.364 s           6.365 s

          Partial memory accounting:
          | Residual value for overall tracked memory usage across tasks :     0.000000 MB (should be 0.000000 MB)
          | Peak values for overall tracked memory usage (after allocating zora_vector2):
          |   Minimum:       27.924 MB (on task 34)
          |   Maximum:       35.298 MB (on task 19)
          |   Average:       31.590 MB
          | Largest tracked array allocation (hamiltonian_shell):
          |   Minimum:        6.480 MB (on task  1)
          |   Maximum:        6.713 MB (on task 19)
          |   Average:        6.491 MB
          Note:  These values currently only include a subset of arrays which are explicitly tracked.
          The "true" memory usage will be greater.

          Have a nice day.
------------------------------------------------------------
