  MPI-parallelism will be employed.
------------------------------------------------------------
          Invoking FHI-aims ...
          Version 180607
          Git rev. (modified): 6724847 Fix JSON memory corruption in scf_solver
          Compiled on 2018/06/27 at 16:00:31 on host coe.psc.edu.

          When using FHI-aims, please cite the following reference:

          Volker Blum, Ralf Gehrke, Felix Hanke, Paula Havu,
          Ville Havu, Xinguo Ren, Karsten Reuter, and Matthias Scheffler,
          'Ab Initio Molecular Simulations with Numeric Atom-Centered Orbitals',
          Computer Physics Communications 180, 2175-2196 (2009)

          For any questions about FHI-aims, please visit the aimsclub website
          with its forums and wiki. Contributions to both the forums and the
          wiki are warmly encouraged - they are for you, and everyone is welcome there.

------------------------------------------------------------



  Date     :  20210620, Time     :  165532.660
  Time zero on CPU 1             :   0.206530000000000E+00  s.
  Internal wall clock time zero  :           393440132.660  s.

  FHI-aims created a unique identifier for this run for later identification
  aims_uuid : 1C8DAB95-1BD9-4DE5-A34A-A318F4931D04

  Using       56 parallel tasks.
  Task        0 on host d021 reporting.
  Task        1 on host d021 reporting.
  Task        2 on host d021 reporting.
  Task        3 on host d021 reporting.
  Task        4 on host d021 reporting.
  Task        5 on host d021 reporting.
  Task        6 on host d021 reporting.
  Task        7 on host d021 reporting.
  Task        8 on host d021 reporting.
  Task        9 on host d021 reporting.
  Task       10 on host d021 reporting.
  Task       11 on host d021 reporting.
  Task       12 on host d021 reporting.
  Task       13 on host d021 reporting.
  Task       14 on host d021 reporting.
  Task       15 on host d021 reporting.
  Task       16 on host d021 reporting.
  Task       17 on host d021 reporting.
  Task       18 on host d021 reporting.
  Task       19 on host d021 reporting.
  Task       20 on host d021 reporting.
  Task       21 on host d021 reporting.
  Task       22 on host d021 reporting.
  Task       23 on host d021 reporting.
  Task       24 on host d021 reporting.
  Task       25 on host d021 reporting.
  Task       26 on host d021 reporting.
  Task       27 on host d021 reporting.
  Task       28 on host d021 reporting.
  Task       29 on host d021 reporting.
  Task       30 on host d021 reporting.
  Task       31 on host d021 reporting.
  Task       32 on host d021 reporting.
  Task       33 on host d021 reporting.
  Task       34 on host d021 reporting.
  Task       35 on host d021 reporting.
  Task       36 on host d021 reporting.
  Task       37 on host d021 reporting.
  Task       38 on host d021 reporting.
  Task       39 on host d021 reporting.
  Task       40 on host d021 reporting.
  Task       41 on host d021 reporting.
  Task       42 on host d021 reporting.
  Task       43 on host d021 reporting.
  Task       44 on host d021 reporting.
  Task       45 on host d021 reporting.
  Task       46 on host d021 reporting.
  Task       47 on host d021 reporting.
  Task       48 on host d021 reporting.
  Task       49 on host d021 reporting.
  Task       50 on host d021 reporting.
  Task       51 on host d021 reporting.
  Task       52 on host d021 reporting.
  Task       53 on host d021 reporting.
  Task       54 on host d021 reporting.
  Task       55 on host d021 reporting.

  Performing system and environment tests:
  *** Environment variable OMP_NUM_THREADS is not set
  *** For performance reasons you might want to set it to 1
  | Stacksize not measured: no C compiler
  | Checking for scalapack...
  | Testing pdtran()...
  | All pdtran() tests passed.

  Obtaining array dimensions for all initial allocations:
  
  -----------------------------------------------------------------------
  Parsing control.in (first pass over file, find array dimensions only).
  The contents of control.in will be repeated verbatim below
  unless switched off by setting 'verbatim_writeout .false.' .
  in the first line of control.in .
  -----------------------------------------------------------------------
  
  #===============================================================================
  # FHI-aims file: ./Runs/es/control.in
  # Created using the Atomic Simulation Environment (ASE)
  # Mon Jan 13 16:04:38 2020
  #===============================================================================
  xc                                 pbe
  relativistic                       zora scalar 1e-12
  occupation_type                    gaussian 0.0001
  load_balancing                     .true.
  KS_method                          scalapack_fast
  mixer                              pulay
  n_max_pulay                        5
  charge_mix_param                   0.4
  sc_accuracy_etot                   1e-6
  sc_accuracy_eev                    1e-4
  sc_accuracy_rho                    1e-6
  sc_iter_limit                      100
  prodbas_threshold                  1e-4
  basis_threshold                    1e-5
  override_illconditioning           .true.
  use_logsbt                         .true.
  spin                               none
  charge                             0
  #===============================================================================
  
  ################################################################################
  #
  #  FHI-aims code project
  # Volker Blum, Fritz Haber Institute Berlin, 2009
  #
  #  Suggested "tight" defaults for H atom (to be pasted into control.in file)
  #
  ################################################################################
    species        H
  #     global species definitions
      nucleus             1
      mass                1.00794
  #
      l_hartree           6
  #
      cut_pot             4.0  2.0  1.0
      basis_dep_cutoff    1e-4
  #
      radial_base         24 7.0
      radial_multiplier   2
      angular_grids       specified
        division   0.1930   50
        division   0.3175  110
        division   0.4293  194
        division   0.5066  302
        division   0.5626  434
  #      division   0.5922  590
  #      division   0.6227  974
  #      division   0.6868 1202
  #      outer_grid  770
        outer_grid  434
  ################################################################################
  #
  #  Definition of "minimal" basis
  #
  ################################################################################
  #     valence basis states
      valence      1  s   1.
  #     ion occupancy
      ion_occ      1  s   0.5
  ################################################################################
  #
  #  Suggested additional basis functions. For production calculations,
  #  uncomment them one after another (the most important basis functions are
  #  listed first).
  #
  #  Basis constructed for dimers: 0.5 A, 0.7 A, 1.0 A, 1.5 A, 2.5 A
  #
  ################################################################################
  #  "First tier" - improvements: -1014.90 meV to -62.69 meV
       hydro 2 s 2.1
       hydro 2 p 3.5
  #  "Second tier" - improvements: -12.89 meV to -1.83 meV
       hydro 1 s 0.85
       hydro 2 p 3.7
       hydro 2 s 1.2
       hydro 3 d 7
  #  "Third tier" - improvements: -0.25 meV to -0.12 meV
  #     hydro 4 f 11.2
  #     hydro 3 p 4.8
  #     hydro 4 d 9
  #     hydro 3 s 3.2
  ################################################################################
  #
  # For methods that use the localized form of the "resolution of identity" for
  # the two-electron Coulomb operator (RI_method LVL), particularly Hartree-Fock and
  # hybrid density functional calculations, the highest accuracy can be obtained by
  # uncommenting the line beginning with "for_aux"  below, thus adding an extra g radial
  # function to the construction of the product basis set for the expansion.
  # See Ref. New J. Phys. 17, 093020 (2015) for more information, particularly Figs. 1 and 6.
  #
  ################################################################################
  #
  # for_aux hydro 5 g 6.0
  ################################################################################
  #
  #  FHI-aims code project
  # Volker Blum, Fritz Haber Institute Berlin, 2009
  #
  #  Suggested "tight" defaults for C atom (to be pasted into control.in file)
  #
  ################################################################################
    species        C
  #     global species definitions
      nucleus             6
      mass                12.0107
  #
      l_hartree           6
  #
      cut_pot             4.0  2.0  1.0
      basis_dep_cutoff    1e-4
  #
      radial_base         34 7.0
      radial_multiplier   2
      angular_grids specified
        division   0.2187   50
        division   0.4416  110
        division   0.6335  194
        division   0.7727  302
        division   0.8772  434
  #      division   0.9334  590
  #      division   0.9924  770
  #      division   1.0230  974
  #      division   1.5020 1202
  #     outer_grid  974
        outer_grid  434
  ################################################################################
  #
  #  Definition of "minimal" basis
  #
  ################################################################################
  #     valence basis states
      valence      2  s   2.
      valence      2  p   2.
  #     ion occupancy
      ion_occ      2  s   1.
      ion_occ      2  p   1.
  ################################################################################
  #
  #  Suggested additional basis functions. For production calculations,
  #  uncomment them one after another (the most important basis functions are
  #  listed first).
  #
  #  Constructed for dimers: 1.0 A, 1.25 A, 1.5 A, 2.0 A, 3.0 A
  #
  ################################################################################
  #  "First tier" - improvements: -1214.57 meV to -155.61 meV
       hydro 2 p 1.7
       hydro 3 d 6
       hydro 2 s 4.9
  #  "Second tier" - improvements: -67.75 meV to -5.23 meV
       hydro 4 f 9.8
       hydro 3 p 5.2
       hydro 3 s 4.3
       hydro 5 g 14.4
       hydro 3 d 6.2
  #  "Third tier" - improvements: -2.43 meV to -0.60 meV
  #     hydro 2 p 5.6
  #     hydro 2 s 1.4
  #     hydro 3 d 4.9
  #     hydro 4 f 11.2
  #  "Fourth tier" - improvements: -0.39 meV to -0.18 meV
  #     hydro 2 p 2.1
  #     hydro 5 g 16.4
  #     hydro 4 d 13.2
  #     hydro 3 s 13.6
  #     hydro 4 f 17.6
  #  Further basis functions - improvements: -0.08 meV and below
  #     hydro 3 s 2
  #     hydro 3 p 6
  #     hydro 4 d 20
  ################################################################################
  #
  # For methods that use the localized form of the "resolution of identity" for
  # the two-electron Coulomb operator (RI_method LVL), particularly Hartree-Fock and
  # hybrid density functional calculations, the highest accuracy can be obtained by
  # uncommenting the line beginning with "for_aux"  below, thus adding an extra g radial
  # function to the construction of the product basis set for the expansion.
  # See Ref. New J. Phys. 17, 093020 (2015) for more information, particularly Figs. 1 and 6.
  #
  ################################################################################
  #
  # for_aux hydro 5 g 6.0
  
  -----------------------------------------------------------------------
  Completed first pass over input file control.in .
  -----------------------------------------------------------------------
  
  
  -----------------------------------------------------------------------
  Parsing geometry.in (first pass over file, find array dimensions only).
  The contents of geometry.in will be repeated verbatim below
  unless switched off by setting 'verbatim_writeout .false.' .
  in the first line of geometry.in .
  -----------------------------------------------------------------------
  
  #=======================================================
  # FHI-aims file: geometry.in
  # Created using the Atomic Simulation Environment (ASE)
  # Sun Jun 20 15:47:01 2021
  #=======================================================
  atom 24.8323889999999992 31.1676399999999987 46.6497979999999970 H
  atom 24.8930019999999992 30.0878720000000008 46.7722570000000033 C
  atom 24.0375240000000012 29.2558450000000008 46.0382370000000023 C
  atom 25.8214599999999983 29.5620249999999984 47.6399010000000018 C
  atom 23.0259509999999992 29.8190010000000001 45.1431359999999984 C
  atom 24.1257069999999985 27.8513030000000015 46.1773529999999965 C
  atom 25.9167379999999987 28.1918650000000000 47.7899999999999991 C
  atom 26.4852670000000003 30.2290719999999986 48.1914230000000003 H
  atom 22.4390770000000010 28.9956209999999999 44.1656630000000021 C
  atom 22.6083479999999994 31.1591069999999988 45.2547950000000014 C
  atom 23.3138140000000007 26.9756350000000005 45.3060479999999970 C
  atom 25.0977500000000013 27.3466960000000014 47.0669630000000012 C
  atom 26.6452129999999983 27.7617760000000011 48.4716689999999986 H
  atom 21.3960819999999998 29.5395959999999995 43.3858809999999977 C
  atom 22.7837010000000006 27.5562940000000012 44.1162399999999977 C
  atom 21.6160339999999991 31.6706059999999994 44.4603690000000000 C
  atom 23.0578800000000008 31.7985000000000007 46.0135259999999988 H
  atom 23.0502779999999987 25.6062170000000009 45.5531620000000004 C
  atom 25.2306330000000010 26.2767480000000013 47.1866759999999985 H
  atom 20.8733690000000003 28.9126609999999999 42.6712640000000007 H
  atom 20.9896290000000008 30.8421950000000002 43.5396410000000031 C
  atom 22.5353689999999993 26.7147439999999996 43.0124649999999988 C
  atom 21.3032369999999993 32.7071469999999991 44.5824619999999996 H
  atom 22.5515860000000004 24.7918880000000001 44.5097919999999974 C
  atom 23.2377940000000009 25.0425229999999992 46.9315080000000009 C
  atom 20.1592880000000001 31.2100219999999986 42.9410760000000025 H
  atom 22.1877040000000001 27.2544930000000001 41.6615749999999991 C
  atom 22.5870619999999995 25.3170380000000002 43.1955120000000008 C
  atom 21.9566030000000012 23.4402070000000009 44.6800259999999980 C
  atom 22.4360360000000014 25.5146340000000009 47.9675560000000019 C
  atom 24.1236800000000002 24.0064109999999999 47.1859439999999992 C
  atom 21.0352409999999992 26.8152469999999994 40.9989440000000016 C
  atom 23.0107469999999985 28.1679759999999995 41.0135879999999986 C
  atom 22.7056539999999991 24.3549709999999990 42.0807539999999989 C
  atom 21.8025359999999999 22.5986429999999991 43.5634370000000004 C
  atom 21.4092589999999987 23.0197709999999987 45.9101039999999969 C
  atom 21.6951959999999993 26.2832860000000004 47.7583330000000004 H
  atom 22.5232059999999983 24.9650360000000013 49.2360740000000021 C
  atom 24.7319409999999991 23.6019299999999994 46.3796210000000002 H
  atom 24.2290939999999999 23.4712430000000012 48.4581230000000005 C
  atom 20.3707250000000002 26.1076909999999991 41.4973820000000018 H
  atom 20.7402830000000016 27.2545129999999993 39.7212729999999965 C
  atom 22.7086940000000013 28.6114880000000014 39.7377480000000034 C
  atom 23.9116350000000004 28.5243479999999998 41.5133069999999975 H
  atom 22.3194720000000011 23.0230309999999996 42.2601399999999998 C
  atom 23.3442219999999985 24.7081850000000003 40.8799629999999965 C
  atom 21.1893080000000005 21.3362780000000001 43.7318410000000029 C
  atom 20.8051540000000017 21.7849369999999993 46.0327460000000031 C
  atom 21.4071309999999997 23.6804650000000017 46.7665829999999971 H
  atom 21.8631489999999999 25.3315629999999992 50.0237270000000009 H
  atom 23.4303780000000010 23.9531059999999982 49.4868489999999994 C
  atom 24.9381079999999997 22.6648239999999994 48.6444649999999967 H
  atom 19.8426389999999984 26.8957610000000003 39.2177099999999967 H
  atom 21.5856260000000013 28.1561290000000000 39.0860989999999973 C
  atom 23.3639870000000016 29.3302109999999985 39.2468149999999980 H
  atom 22.4796210000000016 22.1216839999999983 41.1856519999999975 C
  atom 23.5286970000000011 23.8043580000000006 39.8658810000000017 C
  atom 23.7200640000000007 25.7190949999999994 40.7648259999999993 H
  atom 21.0618979999999993 20.6837890000000009 42.8698710000000034 H
  atom 20.7200109999999995 20.9255940000000002 44.9545969999999997 C
  atom 20.3793399999999991 21.5036799999999992 46.9922800000000009 H
  atom 23.5053839999999994 23.5139570000000013 50.4815279999999973 H
  atom 21.3563490000000016 28.5053950000000000 38.0787899999999979 H
  atom 22.1491870000000013 21.0899059999999992 41.2885249999999999 H
  atom 23.0604140000000015 22.5080320000000000 40.0196410000000000 C
  atom 24.0252589999999984 24.1056409999999985 38.9440540000000013 H
  atom 20.2363210000000002 19.9550340000000013 45.0675370000000015 H
  atom 23.1661320000000011 21.7924609999999994 39.2091070000000030 H
  
  -----------------------------------------------------------------------
  Completed first pass over input file geometry.in .
  -----------------------------------------------------------------------
  

  Basic array size parameters:
  | Number of species                 :        2
  | Number of atoms                   :       68
  | Max. basis fn. angular momentum   :        4
  | Max. atomic/ionic basis occupied n:        2
  | Max. number of basis fn. types    :        2
  | Max. radial fns per species/type  :        8
  | Max. logarithmic grid size        :     1277
  | Max. radial integration grid size :       69
  | Max. angular integration grid size:      434
  | Max. angular grid division number :        8
  | Radial grid for Hartree potential :     1277
  | Number of spin channels           :        1

------------------------------------------------------------
          Reading file control.in.
------------------------------------------------------------
  XC: Using PBE gradient-corrected functionals.
  Scalar relativistic treatment of kinetic energy: ZORA.
  Threshold value for ZORA:   0.100000E-11
  Occupation type: Gaussian broadening, width =   0.100000E-03 eV.
  Since 'load_balancing .true.' is present in control.in, automatically turning on 'use_local_index .true.'.
  Using load balancing for integrations.
  Kohn-Sham electronic structure solved by the ELSI library.
  Using pulay charge density mixing.
  Pulay mixing - number of memorized iterations:    5
  Charge density mixing - mixing parameter:     0.4000
  Convergence accuracy of total energy:  0.1000E-05
  Convergence accuracy of sum of eigenvalues:  0.1000E-03
  Convergence accuracy of self-consistent charge density:  0.1000E-05
  Maximum number of s.-c. iterations  :   100
  * Ignoring prodbas_threshold
  Threshold for basis singularities:  0.1000E-04
  override_illconditioning: Explicitly overriding any built-in checks for an ill-conditioned overlap matrix.
  *** WARNING: If you use this flag, you should really know what you are doing.
  *** DO NOT keep this flag set by default in all your control.in files.
  Using 1D integrations for auxiliary 2-center integrals.
  Spin treatment: No spin polarisation.
  Charge =   0.000000E+00: Neutral system requested explicitly.
 
  Reading configuration options for species H                   .
  | Found nuclear charge :   1.0000
  | Found atomic mass :    1.00794000000000      amu
  | Found l_max for Hartree potential  :   6
  | Found cutoff potl. onset [A], width [A], scale factor :    4.00000    2.00000    1.00000
  | Threshold for basis-dependent cutoff potential is   0.100000E-03
  | Found data for basic radial integration grid :    24 points, outermost radius =    7.000 A
  | Found multiplier for basic radial grid :   2
  | Found angular grid specification: user-specified.
  | Specified grid contains     6 separate shells.
  | Check grid settings after all constraints further below.
  | Found free-atom valence shell :  1 s   1.000
  | No ionic wave fns used. Skipping ion_occ.
  | Found hydrogenic basis function :  2 s   2.100
  | Found hydrogenic basis function :  2 p   3.500
  | Found hydrogenic basis function :  1 s   0.850
  | Found hydrogenic basis function :  2 p   3.700
  | Found hydrogenic basis function :  2 s   1.200
  | Found hydrogenic basis function :  3 d   7.000
  Species H                   : Missing cutoff potential type.
  Defaulting to exp(1/x)/(1-x)^2 type cutoff potential.
  Species H : No 'logarithmic' tag. Using default grid for free atom:
  | Default logarithmic grid data [bohr] : 0.1000E-03 0.1000E+03 0.1012E+01
  Species H : On-site basis accuracy parameter (for Gram-Schmidt orthonormalisation) not specified.
  Using default value basis_acc =  0.1000000E-03.
  Species H                   : Using default innermost maximum threshold i_radial=  2 for radial functions.
  Species H                   : Default cutoff onset for free atom density etc. : 0.40000000E+01 AA.
  Species H                   : Basic radial grid will be enhanced according to radial_multiplier =   2, to contain    49 grid points.
 
  Reading configuration options for species C                   .
  | Found nuclear charge :   6.0000
  | Found atomic mass :    12.0107000000000      amu
  | Found l_max for Hartree potential  :   6
  | Found cutoff potl. onset [A], width [A], scale factor :    4.00000    2.00000    1.00000
  | Threshold for basis-dependent cutoff potential is   0.100000E-03
  | Found data for basic radial integration grid :    34 points, outermost radius =    7.000 A
  | Found multiplier for basic radial grid :   2
  | Found angular grid specification: user-specified.
  | Specified grid contains     6 separate shells.
  | Check grid settings after all constraints further below.
  | Found free-atom valence shell :  2 s   2.000
  | Found free-atom valence shell :  2 p   2.000
  | No ionic wave fns used. Skipping ion_occ.
  | No ionic wave fns used. Skipping ion_occ.
  | Found hydrogenic basis function :  2 p   1.700
  | Found hydrogenic basis function :  3 d   6.000
  | Found hydrogenic basis function :  2 s   4.900
  | Found hydrogenic basis function :  4 f   9.800
  | Found hydrogenic basis function :  3 p   5.200
  | Found hydrogenic basis function :  3 s   4.300
  | Found hydrogenic basis function :  5 g  14.400
  | Found hydrogenic basis function :  3 d   6.200
  Species C                   : Missing cutoff potential type.
  Defaulting to exp(1/x)/(1-x)^2 type cutoff potential.
  Species C : No 'logarithmic' tag. Using default grid for free atom:
  | Default logarithmic grid data [bohr] : 0.1000E-03 0.1000E+03 0.1012E+01
  Species C : On-site basis accuracy parameter (for Gram-Schmidt orthonormalisation) not specified.
  Using default value basis_acc =  0.1000000E-03.
  Species C                   : Using default innermost maximum threshold i_radial=  2 for radial functions.
  Species C                   : Default cutoff onset for free atom density etc. : 0.40000000E+01 AA.
  Species C                   : Basic radial grid will be enhanced according to radial_multiplier =   2, to contain    69 grid points.
 
  Finished reading input file 'control.in'. Consistency checks are next.
 
  MPI_IN_PLACE appears to work with this MPI implementation.
  | Keeping use_mpi_in_place .true. (see manual).
  Target number of points in a grid batch is not set. Defaulting to  100
  Method for grid partitioning is not set. Defaulting to parallel hash+maxmin partitioning.
  Batch size limit is not set. Defaulting to    200
  By default, will store active basis functions for each batch.
  If in need of memory, prune_basis_once .false. can be used to disable this option.
  communication_type for Hartree potential was not specified.
  Defaulting to calc_hartree .
  Pulay mixer: Number of initial linear mixing iterations not set.
  Defaulting to    0 iterations.
  Work space size for distributed Hartree potential not set.
  Defaulting to   0.200000E+03 MB.
  Algorithm-dependent basis array size parameters:
  | n_max_pulay                         :        5
  Presetting      1001 iterations before the initial mixing cycle
  is restarted anyway using the sc_init_iter criterion / keyword.
  Presetting a factor      1.000 between actual scf density residual
  and density convergence criterion sc_accuracy_rho below which sc_init_iter
  takes no effect.
  Calculation of forces was not defined in control.in. No forces will be calculated.
  Geometry relaxation not requested: no relaxation will be performed.
  No accuracy limit for integral partition fn. given. Defaulting to  0.1000E-14.
  No threshold value for u(r) in integrations given. Defaulting to  0.1000E-05.
  No accuracy for occupation numbers given. Defaulting to  0.1000E-12.
  No threshold value for occupation numbers given. Defaulting to  0.0000E+00.
  No accuracy for fermi level given. Defaulting to  0.1000E-19.
  Maximum # of iterations to find E_F not set. Defaulting to  200.
  Will not use alltoall communication since running on < 1024 CPUs.
  partition_type (choice of integration weights) for integrals was not specified.
  | Using a version of the partition function of Stratmann and coworkers ('stratmann_sparse').
  | At each grid point, the set of atoms used to build the partition table is smoothly restricted to
  | only those atoms whose free-atom density would be non-zero at that grid point.
  Partitioning for Hartree potential was not defined. Using partition_type for integrals.
  | Adjusted default value of keyword multip_moments_threshold to:       0.10000000E-11
  | This value may affect high angular momentum components of the Hartree potential in periodic systems.
  No q(lm)/r^(l+1) cutoff set for long-range Hartree potential.
  | Using default value of  0.100000E-09 .
  | Verify using the multipole_threshold keyword.
  Defaulting to new monopole extrapolation.
  Density update method: automatic selection selected.
 * Warning: use_local_index and/or load_balancing needs packed_matrix_format = index
 * Changing the default setting to packed_matrix_format = index
------------------------------------------------------------


------------------------------------------------------------
          Reading geometry description geometry.in.
------------------------------------------------------------
  Input structure read successfully.
  The structure contains       68 atoms,  and a total of        278.000 electrons.

  Input geometry:
  | No unit cell requested.
  | Atomic structure:
  |       Atom                x [A]            y [A]            z [A]
  |    1: Species H            24.83238900       31.16764000       46.64979800
  |    2: Species C            24.89300200       30.08787200       46.77225700
  |    3: Species C            24.03752400       29.25584500       46.03823700
  |    4: Species C            25.82146000       29.56202500       47.63990100
  |    5: Species C            23.02595100       29.81900100       45.14313600
  |    6: Species C            24.12570700       27.85130300       46.17735300
  |    7: Species C            25.91673800       28.19186500       47.79000000
  |    8: Species H            26.48526700       30.22907200       48.19142300
  |    9: Species C            22.43907700       28.99562100       44.16566300
  |   10: Species C            22.60834800       31.15910700       45.25479500
  |   11: Species C            23.31381400       26.97563500       45.30604800
  |   12: Species C            25.09775000       27.34669600       47.06696300
  |   13: Species H            26.64521300       27.76177600       48.47166900
  |   14: Species C            21.39608200       29.53959600       43.38588100
  |   15: Species C            22.78370100       27.55629400       44.11624000
  |   16: Species C            21.61603400       31.67060600       44.46036900
  |   17: Species H            23.05788000       31.79850000       46.01352600
  |   18: Species C            23.05027800       25.60621700       45.55316200
  |   19: Species H            25.23063300       26.27674800       47.18667600
  |   20: Species H            20.87336900       28.91266100       42.67126400
  |   21: Species C            20.98962900       30.84219500       43.53964100
  |   22: Species C            22.53536900       26.71474400       43.01246500
  |   23: Species H            21.30323700       32.70714700       44.58246200
  |   24: Species C            22.55158600       24.79188800       44.50979200
  |   25: Species C            23.23779400       25.04252300       46.93150800
  |   26: Species H            20.15928800       31.21002200       42.94107600
  |   27: Species C            22.18770400       27.25449300       41.66157500
  |   28: Species C            22.58706200       25.31703800       43.19551200
  |   29: Species C            21.95660300       23.44020700       44.68002600
  |   30: Species C            22.43603600       25.51463400       47.96755600
  |   31: Species C            24.12368000       24.00641100       47.18594400
  |   32: Species C            21.03524100       26.81524700       40.99894400
  |   33: Species C            23.01074700       28.16797600       41.01358800
  |   34: Species C            22.70565400       24.35497100       42.08075400
  |   35: Species C            21.80253600       22.59864300       43.56343700
  |   36: Species C            21.40925900       23.01977100       45.91010400
  |   37: Species H            21.69519600       26.28328600       47.75833300
  |   38: Species C            22.52320600       24.96503600       49.23607400
  |   39: Species H            24.73194100       23.60193000       46.37962100
  |   40: Species C            24.22909400       23.47124300       48.45812300
  |   41: Species H            20.37072500       26.10769100       41.49738200
  |   42: Species C            20.74028300       27.25451300       39.72127300
  |   43: Species C            22.70869400       28.61148800       39.73774800
  |   44: Species H            23.91163500       28.52434800       41.51330700
  |   45: Species C            22.31947200       23.02303100       42.26014000
  |   46: Species C            23.34422200       24.70818500       40.87996300
  |   47: Species C            21.18930800       21.33627800       43.73184100
  |   48: Species C            20.80515400       21.78493700       46.03274600
  |   49: Species H            21.40713100       23.68046500       46.76658300
  |   50: Species H            21.86314900       25.33156300       50.02372700
  |   51: Species C            23.43037800       23.95310600       49.48684900
  |   52: Species H            24.93810800       22.66482400       48.64446500
  |   53: Species H            19.84263900       26.89576100       39.21771000
  |   54: Species C            21.58562600       28.15612900       39.08609900
  |   55: Species H            23.36398700       29.33021100       39.24681500
  |   56: Species C            22.47962100       22.12168400       41.18565200
  |   57: Species C            23.52869700       23.80435800       39.86588100
  |   58: Species H            23.72006400       25.71909500       40.76482600
  |   59: Species H            21.06189800       20.68378900       42.86987100
  |   60: Species C            20.72001100       20.92559400       44.95459700
  |   61: Species H            20.37934000       21.50368000       46.99228000
  |   62: Species H            23.50538400       23.51395700       50.48152800
  |   63: Species H            21.35634900       28.50539500       38.07879000
  |   64: Species H            22.14918700       21.08990600       41.28852500
  |   65: Species C            23.06041400       22.50803200       40.01964100
  |   66: Species H            24.02525900       24.10564100       38.94405400
  |   67: Species H            20.23632100       19.95503400       45.06753700
  |   68: Species H            23.16613200       21.79246100       39.20910700
  |

  | The smallest distance between any two atoms is         1.08170115 AA.
  |
  | The first atom of this pair is atom number                     36 .
  | The second atom of this pair is atom number                    49 .

  Number of empty states per atom not set in control.in - providing a guess from actual geometry.
  | Total number of empty states used during s.c.f. cycle:      165
  If you use a very high smearing, use empty_states (per atom!) in control.in to increase this value.

  Structure-dependent array size parameters: 
  | Maximum number of distinct radial functions  :       18
  | Maximum number of basis functions            :     2028
  | Number of Kohn-Sham states (occupied + empty):      304
------------------------------------------------------------

------------------------------------------------------------
          Preparing all fixed parts of the calculation.
------------------------------------------------------------
  Determining machine precision:
    2.225073858507201E-308
  Setting up grids for atomic and cluster calculations.

  Creating wave function, potential, and density for free atoms.

  Species: H

  List of occupied orbitals and eigenvalues:
    n    l              occ      energy [Ha]    energy [eV]
    1    0           1.0000        -0.238386        -6.4868


  Species: C

  List of occupied orbitals and eigenvalues:
    n    l              occ      energy [Ha]    energy [eV]
    1    0           2.0000       -10.049212      -273.4530
    2    0           2.0000        -0.504761       -13.7352
    2    1           2.0000        -0.193631        -5.2690

  Creating fixed part of basis set: Ionic, confined, hydrogenic.
 
  H                    hydrogenic:
 
  List of hydrogenic basis orbitals: 
    n    l      effective z      eigenvalue [eV]  inner max. [A]     outer max. [A]     outer radius [A]   
    2    0         2.100000       -14.9965           0.193243           1.317208           5.373006
    2    1         3.500000       -41.6672           0.602369           0.602369           4.056063
    1    0         0.850000        -9.8292           0.624871           0.624871           5.373006
    2    1         3.700000       -46.5653           0.573622           0.573622           3.910002
    2    0         1.200000        -4.5995           0.334980           2.228188           5.505995
    3    2         7.000000       -74.0753           0.680699           0.680699           3.769201
 
 
  C                    hydrogenic:
 
  List of hydrogenic basis orbitals: 
    n    l      effective z      eigenvalue [eV]  inner max. [A]     outer max. [A]     outer radius [A]   
    2    1         1.700000        -9.8152           1.245706           1.245706           5.401630
    3    2         6.000000       -54.4226           0.792453           0.792453           4.178599
    2    0         4.900000       -81.6681           0.082559           0.562749           3.353238
    4    3         9.800000       -81.6681           0.863254           0.863254           4.028125
    3    1         5.200000       -40.8774           0.305389           1.215618           4.898362
    3    0         4.300000       -27.9508           0.091041           1.610311           5.401630
    5    4        14.400000      -112.8510           0.917666           0.917666           3.883070
    3    2         6.200000       -58.1113           0.763917           0.763917           4.077671
 

  Adding cutoff potential to free-atom effective potential.
  Creating atomic-like basis functions for current effective potential.

  Species H                   :

  List of atomic basis orbitals and eigenvalues:
    n    l      energy [Ha]    energy [eV]    outer radius [A]
    1    0        -0.238386        -6.4868       5.373006


  Species C                   :

  List of atomic basis orbitals and eigenvalues:
    n    l      energy [Ha]    energy [eV]    outer radius [A]
    1    0       -10.049212      -273.4530       1.934409
    2    0        -0.504761       -13.7352       5.271162
    2    1        -0.193631        -5.2690       5.401630

  Assembling full basis from fixed parts.
  | Species H :   atomic orbital   1 s accepted.
  | Species H :    hydro orbital   2 s accepted.
  | Species H :    hydro orbital   1 s accepted.
  | Species H :    hydro orbital   2 s accepted.
  | Species H :    hydro orbital   2 p accepted.
  | Species H :    hydro orbital   2 p accepted.
  | Species H :    hydro orbital   3 d accepted.
  | Species C :   atomic orbital   1 s accepted.
  | Species C :    hydro orbital   2 s accepted.
  | Species C :   atomic orbital   2 s accepted.
  | Species C :    hydro orbital   3 s accepted.
  | Species C :    hydro orbital   3 p accepted.
  | Species C :   atomic orbital   2 p accepted.
  | Species C :    hydro orbital   2 p accepted.
  | Species C :    hydro orbital   3 d accepted.
  | Species C :    hydro orbital   3 d accepted.
  | Species C :    hydro orbital   4 f accepted.
  | Species C :    hydro orbital   5 g accepted.
 
  Basis size parameters after reduction:
  | Total number of radial functions:       18
  | Total number of basis functions :     2028
 
  Per-task memory consumption for arrays in subroutine allocate_ext:
  |           4.460456MB.
  Testing on-site integration grid accuracy.
  |  Species  Function  <phi|h_atom|phi> (log., in eV)  <phi|h_atom|phi> (rad., in eV)
           1        1                 -6.4870767962                 -6.4871688290
           1        2                 13.5032046589                 13.5028982997
           1        3                 32.8195184817                 32.8119941656
           1        4                 33.8513856511                 33.7670005767 ***
           1        5                 28.8544614965                 28.8544615203
           1        6                 59.6326952547                 59.6327656460
           1        7                 60.2719308513                 60.2719305949
           2        8               -273.4529726040               -273.4529710464
           2        9                -10.7721037319                -10.7721022101
           2       10                 17.6044132601                 17.6044162063
           2       11                 53.7706460658                 53.7706913770
           2       12                 15.0973290362                 15.0973256030
           2       13                  3.8545134692                  3.8545724687
           2       14                 12.1156992592                 12.1182024431
           2       15                 29.4352039302                 29.4352041816
           2       16                 54.8741144708                 54.8740268729
           2       17                 59.3556032049                 59.3556031382
           2       18                 93.4551837154                 93.4551838009
 * Note: Onsite integrals marked "***" above are less accurate than
 * onsite_accuracy_threshold =    0.03000 eV. Usually, this is harmless.
 * When in doubt, tighten the "radial" and/or "radial_multiplier" flags to check.

  Preparing densities etc. for the partition functions (integrals / Hartree potential).

  Preparations completed.
  max(cpu_time)          :      0.196 s.
  Wall clock time (cpu1) :      0.182 s.
------------------------------------------------------------

------------------------------------------------------------
          Begin self-consistency loop: Initialization.

          Date     :  20210620, Time     :  165533.266
------------------------------------------------------------

  Initializing index lists of integration centers etc. from given atomic structure:
  | Number of centers in hartree potential         :        68
  | Number of centers in hartree multipole         :        68
  | Number of centers in electron density summation:        68
  | Number of centers in basis integrals           :        68
  | Number of centers in integrals                 :        68
  | Number of centers in hamiltonian               :        68
  * Using 56 tasks for Scalapack Eigenvalue solver.
  Detailed listing of tasks and assigned k-points:
  (for non-periodic systems, the "k-point" denotes an internal label only)
   Task     0 k-point     1 on d021
   Task     1 k-point     1 on d021
   Task     2 k-point     1 on d021
   Task     3 k-point     1 on d021
   Task     4 k-point     1 on d021
   Task     5 k-point     1 on d021
   Task     6 k-point     1 on d021
   Task     7 k-point     1 on d021
   Task     8 k-point     1 on d021
   Task     9 k-point     1 on d021
   Task    10 k-point     1 on d021
   Task    11 k-point     1 on d021
   Task    12 k-point     1 on d021
   Task    13 k-point     1 on d021
   Task    14 k-point     1 on d021
   Task    15 k-point     1 on d021
   Task    16 k-point     1 on d021
   Task    17 k-point     1 on d021
   Task    18 k-point     1 on d021
   Task    19 k-point     1 on d021
   Task    20 k-point     1 on d021
   Task    21 k-point     1 on d021
   Task    22 k-point     1 on d021
   Task    23 k-point     1 on d021
   Task    24 k-point     1 on d021
   Task    25 k-point     1 on d021
   Task    26 k-point     1 on d021
   Task    27 k-point     1 on d021
   Task    28 k-point     1 on d021
   Task    29 k-point     1 on d021
   Task    30 k-point     1 on d021
   Task    31 k-point     1 on d021
   Task    32 k-point     1 on d021
   Task    33 k-point     1 on d021
   Task    34 k-point     1 on d021
   Task    35 k-point     1 on d021
   Task    36 k-point     1 on d021
   Task    37 k-point     1 on d021
   Task    38 k-point     1 on d021
   Task    39 k-point     1 on d021
   Task    40 k-point     1 on d021
   Task    41 k-point     1 on d021
   Task    42 k-point     1 on d021
   Task    43 k-point     1 on d021
   Task    44 k-point     1 on d021
   Task    45 k-point     1 on d021
   Task    46 k-point     1 on d021
   Task    47 k-point     1 on d021
   Task    48 k-point     1 on d021
   Task    49 k-point     1 on d021
   Task    50 k-point     1 on d021
   Task    51 k-point     1 on d021
   Task    52 k-point     1 on d021
   Task    53 k-point     1 on d021
   Task    54 k-point     1 on d021
   Task    55 k-point     1 on d021
  Tasks:    56 split into      8 X      7 BLACS grid
  Calculating block size based on n_basis =         2028 max_nprow =            8 max_npcol =            7
  ScaLAPACK block size set to:           16
  Allocating        0.614 MB for ovlp
  Allocating        0.614 MB for ham
  Allocating        0.614 MB for eigenvec
  Required Scalapack workspace - INTEGER:            1 REAL:             1
  Partitioning the integration grid into batches with parallel hashing+maxmin method.
  | Number of batches:     9763
  | Maximal batch size:     200
  | Minimal batch size:       5
  | Average batch size:     116.253
  | Standard deviation of batch sizes:      37.459

  Integration load balanced across     56 MPI tasks.
  Work distribution over tasks is as follows:
  Task      0 has      20386 integration points.
  Task      1 has      20297 integration points.
  Task      2 has      20172 integration points.
  Task      3 has      20340 integration points.
  Task      4 has      20270 integration points.
  Task      5 has      20316 integration points.
  Task      6 has      20158 integration points.
  Task      7 has      20320 integration points.
  Task      8 has      20259 integration points.
  Task      9 has      20258 integration points.
  Task     10 has      20282 integration points.
  Task     11 has      20253 integration points.
  Task     12 has      20334 integration points.
  Task     13 has      20150 integration points.
  Task     14 has      20317 integration points.
  Task     15 has      20324 integration points.
  Task     16 has      20225 integration points.
  Task     17 has      20410 integration points.
  Task     18 has      20132 integration points.
  Task     19 has      20300 integration points.
  Task     20 has      20227 integration points.
  Task     21 has      20328 integration points.
  Task     22 has      20294 integration points.
  Task     23 has      20280 integration points.
  Task     24 has      20379 integration points.
  Task     25 has      20178 integration points.
  Task     26 has      20228 integration points.
  Task     27 has      20135 integration points.
  Task     28 has      20301 integration points.
  Task     29 has      20305 integration points.
  Task     30 has      20237 integration points.
  Task     31 has      20431 integration points.
  Task     32 has      20183 integration points.
  Task     33 has      20356 integration points.
  Task     34 has      20118 integration points.
  Task     35 has      20302 integration points.
  Task     36 has      20392 integration points.
  Task     37 has      20144 integration points.
  Task     38 has      20344 integration points.
  Task     39 has      20271 integration points.
  Task     40 has      20284 integration points.
  Task     41 has      20191 integration points.
  Task     42 has      20304 integration points.
  Task     43 has      20346 integration points.
  Task     44 has      20160 integration points.
  Task     45 has      20335 integration points.
  Task     46 has      20286 integration points.
  Task     47 has      20321 integration points.
  Task     48 has      20089 integration points.
  Task     49 has      20368 integration points.
  Task     50 has      20406 integration points.
  Task     51 has      20119 integration points.
  Task     52 has      20321 integration points.
  Task     53 has      20267 integration points.
  Task     54 has      20306 integration points.
  Task     55 has      19937 integration points.
  Initializing partition tables, free-atom densities, potentials, etc. across the integration grid (initialize_grid_storage).
  | initialize_grid_storage: Actual outermost partition radius vs. multipole_radius_free
  | (-- VB: in principle, multipole_radius_free should be larger, hence this output)
  | Species        1: Confinement radius =              6.000000000000000 AA, multipole_radius_free =              6.071692442739658 AA.
  | Species        1: outer_partition_radius set to              6.071692442739658 AA .
  | Species        2: Confinement radius =              6.000000000000000 AA, multipole_radius_free =              6.029870734432609 AA.
  | Species        2: outer_partition_radius set to              6.029870734432609 AA .
  | The sparse table of interatomic distances needs     54.9480 kbyte instead of    36.9920 kbyte of memory.
  | Using the partition_type stratmann_smoother will reduce your memory usage.
  | Net number of integration points:  1134976
  | of which are non-zero points    :   890982
  Renormalizing the initial density to the exact electron count on the 3D integration grid.
  | Initial density: Formal number of electrons (from input files) :     278.0000000000
  | Integrated number of electrons on 3D grid     :     277.9997461227
  | Charge integration error                      :      -0.0002538773
  | Normalization factor for density and gradient :       1.0000009132
  Obtaining max. number of non-zero basis functions in each batch (get_n_compute_maxes).
  | Maximal number of non-zero basis functions:     1229
  Selecting the method for density update.
  Loop over occupied states selected for charge density update.
  Hamiltonian matrix size:
  | Size of matrix non-packed:               2057406
  | Size of matrix packed:         1782713
  Allocating        4.932 MB for KS_eigenvector
  use_local_index: Max. local matrix size =      1313563
  Task:     0 matrix size:     258421
  Task:     1 matrix size:     489097
  Task:     2 matrix size:     761765
  Task:     3 matrix size:     247902
  Task:     4 matrix size:     458708
  Task:     5 matrix size:    1141422
  Task:     6 matrix size:    1247254
  Task:     7 matrix size:     175528
  Task:     8 matrix size:     451980
  Task:     9 matrix size:     384304
  Task:    10 matrix size:     486189
  Task:    11 matrix size:     927617
  Task:    12 matrix size:    1282777
  Task:    13 matrix size:    1301224
  Task:    14 matrix size:     267882
  Task:    15 matrix size:     972869
  Task:    16 matrix size:    1091379
  Task:    17 matrix size:     506405
  Task:    18 matrix size:     344652
  Task:    19 matrix size:     785649
  Task:    20 matrix size:     315462
  Task:    21 matrix size:     700374
  Task:    22 matrix size:    1147786
  Task:    23 matrix size:     988169
  Task:    24 matrix size:     372807
  Task:    25 matrix size:     257971
  Task:    26 matrix size:     532524
  Task:    27 matrix size:     476389
  Task:    28 matrix size:     253567
  Task:    29 matrix size:     922602
  Task:    30 matrix size:    1093366
  Task:    31 matrix size:     269696
  Task:    32 matrix size:     532664
  Task:    33 matrix size:     648826
  Task:    34 matrix size:     307436
  Task:    35 matrix size:     537651
  Task:    36 matrix size:     375665
  Task:    37 matrix size:     328272
  Task:    38 matrix size:    1256253
  Task:    39 matrix size:    1313563
  Task:    40 matrix size:     803373
  Task:    41 matrix size:     811287
  Task:    42 matrix size:    1232250
  Task:    43 matrix size:    1071074
  Task:    44 matrix size:     727838
  Task:    45 matrix size:     698670
  Task:    46 matrix size:     191799
  Task:    47 matrix size:     707753
  Task:    48 matrix size:     318653
  Task:    49 matrix size:    1094088
  Task:    50 matrix size:     699093
  Task:    51 matrix size:     379207
  Task:    52 matrix size:     550444
  Task:    53 matrix size:     423359
  Task:    54 matrix size:     354392
  Task:    55 matrix size:     276525
  Integrating Hamiltonian matrix: batch-based integration.
  Time summed over all CPUs for integration: real work      260.101 s, elapsed      543.103 s
  Time get_set_sparse_local_matrix_scalapack:     0.026073 s
  Start compute_balanced_batch_distribution
  Done load balancing, time needed:      0.011 s
  Integrating overlap matrix with loadbalancing
  Time summed over all CPUs for integration: real work       75.205 s, elapsed       87.247 s
  Time get_set_full_local_matrix_scalapack:     0.030346 s

  Updating Kohn-Sham eigenvalues and eigenvectors using ELSI and the ELPA eigensolver.
  Overlap matrix is not singular
  | Lowest and highest eigenvalues :  0.13E+02,  0.89E-04
  Finished singularity check of overlap matrix
  | Time :     0.155 s
  Finished Cholesky decomposition
  | Time :     0.034 s
  Finished transformation to standard eigenproblem
  | Time :     0.032 s
  Starting ELPA eigensolver
  Finished solving standard eigenproblem
  | Time :     0.171 s
  Finished back-transformation of eigenvectors
  | Time :     0.007 s

  Obtaining occupation numbers and chemical potential using ELSI.
  | Chemical potential (Fermi level):    -7.83978778 eV
  Writing Kohn-Sham eigenvalues.

  State    Occupation    Eigenvalue [Ha]    Eigenvalue [eV]
      1       2.00000         -10.177039         -276.93132
      2       2.00000         -10.174922         -276.87370
      3       2.00000         -10.174505         -276.86238
      4       2.00000         -10.174492         -276.86200
      5       2.00000         -10.174470         -276.86142
      6       2.00000         -10.174206         -276.85423
      7       2.00000         -10.174192         -276.85386
      8       2.00000         -10.174041         -276.84975
      9       2.00000         -10.173905         -276.84604
     10       2.00000         -10.173443         -276.83348
     11       2.00000         -10.173170         -276.82605
     12       2.00000         -10.173093         -276.82395
     13       2.00000         -10.172933         -276.81958
     14       2.00000         -10.172922         -276.81930
     15       2.00000         -10.172389         -276.80477
     16       2.00000         -10.172383         -276.80462
     17       2.00000         -10.172174         -276.79895
     18       2.00000         -10.172104         -276.79704
     19       2.00000         -10.172043         -276.79536
     20       2.00000         -10.171917         -276.79196
     21       2.00000         -10.171834         -276.78970
     22       2.00000         -10.171463         -276.77960
     23       2.00000         -10.170892         -276.76406
     24       2.00000         -10.170872         -276.76352
     25       2.00000         -10.170728         -276.75959
     26       2.00000         -10.170136         -276.74348
     27       2.00000         -10.166401         -276.64185
     28       2.00000         -10.165220         -276.60970
     29       2.00000         -10.164554         -276.59159
     30       2.00000         -10.164083         -276.57878
     31       2.00000         -10.164049         -276.57785
     32       2.00000         -10.163818         -276.57155
     33       2.00000         -10.162891         -276.54632
     34       2.00000         -10.161446         -276.50702
     35       2.00000         -10.160947         -276.49345
     36       2.00000         -10.160808         -276.48964
     37       2.00000         -10.160548         -276.48258
     38       2.00000         -10.159441         -276.45246
     39       2.00000         -10.158976         -276.43979
     40       2.00000         -10.158848         -276.43632
     41       2.00000         -10.158235         -276.41964
     42       2.00000         -10.157373         -276.39618
     43       2.00000          -1.020405          -27.76664
     44       2.00000          -1.010537          -27.49811
     45       2.00000          -1.002336          -27.27495
     46       2.00000          -1.000330          -27.22037
     47       2.00000          -0.990390          -26.94988
     48       2.00000          -0.988516          -26.89889
     49       2.00000          -0.979742          -26.66014
     50       2.00000          -0.936554          -25.48494
     51       2.00000          -0.925763          -25.19130
     52       2.00000          -0.918973          -25.00652
     53       2.00000          -0.907345          -24.69010
     54       2.00000          -0.893808          -24.32175
     55       2.00000          -0.892815          -24.29472
     56       2.00000          -0.888510          -24.17758
     57       2.00000          -0.887476          -24.14945
     58       2.00000          -0.886854          -24.13254
     59       2.00000          -0.884619          -24.07171
     60       2.00000          -0.867164          -23.59674
     61       2.00000          -0.865445          -23.54994
     62       2.00000          -0.852786          -23.20549
     63       2.00000          -0.844604          -22.98284
     64       2.00000          -0.791550          -21.53917
     65       2.00000          -0.775923          -21.11395
     66       2.00000          -0.773566          -21.04979
     67       2.00000          -0.772744          -21.02743
     68       2.00000          -0.759397          -20.66423
     69       2.00000          -0.752134          -20.46661
     70       2.00000          -0.748971          -20.38054
     71       2.00000          -0.748798          -20.37583
     72       2.00000          -0.747643          -20.34439
     73       2.00000          -0.733152          -19.95008
     74       2.00000          -0.731066          -19.89331
     75       2.00000          -0.722867          -19.67021
     76       2.00000          -0.710051          -19.32148
     77       2.00000          -0.688998          -18.74860
     78       2.00000          -0.683669          -18.60358
     79       2.00000          -0.667913          -18.17483
     80       2.00000          -0.660565          -17.97490
     81       2.00000          -0.659864          -17.95582
     82       2.00000          -0.649783          -17.68148
     83       2.00000          -0.644203          -17.52965
     84       2.00000          -0.639605          -17.40455
     85       2.00000          -0.634361          -17.26185
     86       2.00000          -0.632213          -17.20338
     87       2.00000          -0.624901          -17.00442
     88       2.00000          -0.619636          -16.86115
     89       2.00000          -0.611564          -16.64151
     90       2.00000          -0.610094          -16.60151
     91       2.00000          -0.606909          -16.51483
     92       2.00000          -0.597526          -16.25950
     93       2.00000          -0.588837          -16.02306
     94       2.00000          -0.587847          -15.99612
     95       2.00000          -0.584387          -15.90197
     96       2.00000          -0.576092          -15.67626
     97       2.00000          -0.574887          -15.64347
     98       2.00000          -0.573132          -15.59572
     99       2.00000          -0.572218          -15.57084
    100       2.00000          -0.571993          -15.56471
    101       2.00000          -0.571136          -15.54141
    102       2.00000          -0.567039          -15.42992
    103       2.00000          -0.566122          -15.40497
    104       2.00000          -0.563666          -15.33814
    105       2.00000          -0.557475          -15.16967
    106       2.00000          -0.543556          -14.79091
    107       2.00000          -0.529542          -14.40956
    108       2.00000          -0.525800          -14.30774
    109       2.00000          -0.523049          -14.23289
    110       2.00000          -0.518807          -14.11745
    111       2.00000          -0.518260          -14.10256
    112       2.00000          -0.517782          -14.08956
    113       2.00000          -0.508313          -13.83189
    114       2.00000          -0.507760          -13.81685
    115       2.00000          -0.506788          -13.79039
    116       2.00000          -0.504512          -13.72846
    117       2.00000          -0.498349          -13.56076
    118       2.00000          -0.497627          -13.54112
    119       2.00000          -0.496427          -13.50846
    120       2.00000          -0.495727          -13.48942
    121       2.00000          -0.494142          -13.44629
    122       2.00000          -0.490737          -13.35363
    123       2.00000          -0.490336          -13.34272
    124       2.00000          -0.484215          -13.17616
    125       2.00000          -0.471852          -12.83974
    126       2.00000          -0.443716          -12.07411
    127       2.00000          -0.429470          -11.68647
    128       2.00000          -0.425686          -11.58352
    129       2.00000          -0.421388          -11.46656
    130       2.00000          -0.414710          -11.28483
    131       2.00000          -0.412621          -11.22799
    132       2.00000          -0.409227          -11.13564
    133       2.00000          -0.405083          -11.02286
    134       2.00000          -0.401790          -10.93327
    135       2.00000          -0.387137          -10.53453
    136       2.00000          -0.382518          -10.40885
    137       2.00000          -0.379358          -10.32284
    138       2.00000          -0.359839           -9.79171
    139       2.00000          -0.358845           -9.76468
    140       0.00000          -0.254279           -6.91929
    141       0.00000          -0.249291           -6.78354
    142       0.00000          -0.235700           -6.41373
    143       0.00000          -0.230264           -6.26580
    144       0.00000          -0.219441           -5.97129
    145       0.00000          -0.213471           -5.80884
    146       0.00000          -0.211518           -5.75568
    147       0.00000          -0.210163           -5.71883
    148       0.00000          -0.206764           -5.62635
    149       0.00000          -0.199292           -5.42300
    150       0.00000          -0.182235           -4.95886
    151       0.00000          -0.173697           -4.72654
    152       0.00000          -0.165317           -4.49850
    153       0.00000          -0.163172           -4.44012
    154       0.00000          -0.106357           -2.89412
    155       0.00000          -0.081174           -2.20885
    156       0.00000          -0.080196           -2.18223
    157       0.00000          -0.077890           -2.11950
    158       0.00000          -0.073345           -1.99582
    159       0.00000          -0.069868           -1.90121
    160       0.00000          -0.068896           -1.87474
    161       0.00000          -0.066021           -1.79653
    162       0.00000          -0.064887           -1.76567
    163       0.00000          -0.061194           -1.66517
    164       0.00000          -0.059386           -1.61598
    165       0.00000          -0.048195           -1.31145
    166       0.00000          -0.046283           -1.25941
    167       0.00000          -0.041739           -1.13577
    168       0.00000          -0.039090           -1.06369
    169       0.00000          -0.036929           -1.00489
    170       0.00000          -0.036284           -0.98734
    171       0.00000          -0.030925           -0.84152
    172       0.00000          -0.026647           -0.72511
    173       0.00000          -0.023401           -0.63678
    174       0.00000          -0.019620           -0.53390
    175       0.00000          -0.018614           -0.50652
    176       0.00000          -0.015899           -0.43263
    177       0.00000          -0.015742           -0.42835
    178       0.00000          -0.014183           -0.38594
    179       0.00000          -0.008217           -0.22360
    180       0.00000          -0.006685           -0.18191
    181       0.00000          -0.005929           -0.16134
    182       0.00000          -0.002270           -0.06177
    183       0.00000           0.007012            0.19081
    184       0.00000           0.008805            0.23959
    185       0.00000           0.010401            0.28302
    186       0.00000           0.013103            0.35654
    187       0.00000           0.014416            0.39228
    188       0.00000           0.015644            0.42569
    189       0.00000           0.018359            0.49957
    190       0.00000           0.019366            0.52698
    191       0.00000           0.030232            0.82267
    192       0.00000           0.033966            0.92427
    193       0.00000           0.034160            0.92954
    194       0.00000           0.036489            0.99291
    195       0.00000           0.037083            1.00909
    196       0.00000           0.038639            1.05141
    197       0.00000           0.039814            1.08341
    198       0.00000           0.042098            1.14554
    199       0.00000           0.044663            1.21534
    200       0.00000           0.045585            1.24044
    201       0.00000           0.047209            1.28464
    202       0.00000           0.050582            1.37641
    203       0.00000           0.052509            1.42884
    204       0.00000           0.055563            1.51196
    205       0.00000           0.058040            1.57935
    206       0.00000           0.058590            1.59432
    207       0.00000           0.062636            1.70442
    208       0.00000           0.063755            1.73487
    209       0.00000           0.064699            1.76054
    210       0.00000           0.066818            1.81820
    211       0.00000           0.073371            1.99653
    212       0.00000           0.074346            2.02307
    213       0.00000           0.075763            2.06161
    214       0.00000           0.076785            2.08942
    215       0.00000           0.078925            2.14766
    216       0.00000           0.079549            2.16465
    217       0.00000           0.080459            2.18941
    218       0.00000           0.080603            2.19332
    219       0.00000           0.084275            2.29324
    220       0.00000           0.084892            2.31003
    221       0.00000           0.086326            2.34904
    222       0.00000           0.091169            2.48082
    223       0.00000           0.092959            2.52955
    224       0.00000           0.094419            2.56928
    225       0.00000           0.095559            2.60030
    226       0.00000           0.100071            2.72308
    227       0.00000           0.102523            2.78981
    228       0.00000           0.102804            2.79745
    229       0.00000           0.106897            2.90882
    230       0.00000           0.109743            2.98626
    231       0.00000           0.112183            3.05267
    232       0.00000           0.114109            3.10507
    233       0.00000           0.115128            3.13280
    234       0.00000           0.117736            3.20375
    235       0.00000           0.120282            3.27305
    236       0.00000           0.123099            3.34969
    237       0.00000           0.124981            3.40092
    238       0.00000           0.125725            3.42115
    239       0.00000           0.127932            3.48122
    240       0.00000           0.128182            3.48801
    241       0.00000           0.129322            3.51904
    242       0.00000           0.130791            3.55900
    243       0.00000           0.132297            3.59999
    244       0.00000           0.135083            3.67579
    245       0.00000           0.136046            3.70201
    246       0.00000           0.137767            3.74883
    247       0.00000           0.140330            3.81857
    248       0.00000           0.143363            3.90111
    249       0.00000           0.148317            4.03592
    250       0.00000           0.151706            4.12813
    251       0.00000           0.152946            4.16188
    252       0.00000           0.155963            4.24397
    253       0.00000           0.157745            4.29246
    254       0.00000           0.158364            4.30930
    255       0.00000           0.159458            4.33908
    256       0.00000           0.162481            4.42133
    257       0.00000           0.163147            4.43946
    258       0.00000           0.165616            4.50663
    259       0.00000           0.168769            4.59245
    260       0.00000           0.169235            4.60511
    261       0.00000           0.171784            4.67447
    262       0.00000           0.173984            4.73435
    263       0.00000           0.176339            4.79843
    264       0.00000           0.178701            4.86270
    265       0.00000           0.183366            4.98965
    266       0.00000           0.184443            5.01894
    267       0.00000           0.187246            5.09521
    268       0.00000           0.189140            5.14677
    269       0.00000           0.190047            5.17143
    270       0.00000           0.191442            5.20939
    271       0.00000           0.194672            5.29730
    272       0.00000           0.196645            5.35098
    273       0.00000           0.197560            5.37587
    274       0.00000           0.201209            5.47519
    275       0.00000           0.202446            5.50885
    276       0.00000           0.204720            5.57071
    277       0.00000           0.206745            5.62581
    278       0.00000           0.207916            5.65768
    279       0.00000           0.209932            5.71253
    280       0.00000           0.213296            5.80407
    281       0.00000           0.215026            5.85117
    282       0.00000           0.216988            5.90453
    283       0.00000           0.218464            5.94470
    284       0.00000           0.227489            6.19030
    285       0.00000           0.228599            6.22049
    286       0.00000           0.230728            6.27843
    287       0.00000           0.232051            6.31442
    288       0.00000           0.233826            6.36274
    289       0.00000           0.236509            6.43575
    290       0.00000           0.238296            6.48437
    291       0.00000           0.241590            6.57400
    292       0.00000           0.243684            6.63098
    293       0.00000           0.245482            6.67991
    294       0.00000           0.250191            6.80803
    295       0.00000           0.250307            6.81121
    296       0.00000           0.257309            7.00175
    297       0.00000           0.263284            7.16433
    298       0.00000           0.265595            7.22720
    299       0.00000           0.267605            7.28190
    300       0.00000           0.268680            7.31116
    301       0.00000           0.274722            7.47558
    302       0.00000           0.279047            7.59326
    303       0.00000           0.282618            7.69043
    304       0.00000           0.283980            7.72749

  Highest occupied state (VBM) at     -9.76467847 eV
  | Occupation number:      2.00000000

  Lowest unoccupied state (CBM) at    -6.91929391 eV
  | Occupation number:      0.00000000

  Overall HOMO-LUMO gap:      2.84538456 eV.
  Calculating total energy contributions from superposition of free atom densities.

  Total energy components:
  | Sum of eigenvalues            :        -979.47668239 Ha      -26652.91661331 eV
  | XC energy correction          :        -231.83017317 Ha       -6308.41998073 eV
  | XC potential correction       :         297.79328598 Ha        8103.36760632 eV
  | Free-atom electrostatic energy:        -703.92956282 Ha      -19154.89799469 eV
  | Hartree energy correction     :           0.00000000 Ha           0.00000000 eV
  | Entropy correction            :           0.00000000 Ha           0.00000000 eV
  | ---------------------------
  | Total energy                  :       -1617.44313239 Ha      -44012.86698242 eV
  | Total energy, T -> 0          :       -1617.44313239 Ha      -44012.86698242 eV  <-- do not rely on this value for anything but (periodic) metals
  | Electronic free energy        :       -1617.44313239 Ha      -44012.86698242 eV

  Derived energy quantities:
  | Kinetic energy                :        1602.39621788 Ha       43603.41960602 eV
  | Electrostatic energy          :       -2988.00917710 Ha      -81307.86660771 eV
  | Energy correction for multipole
  | error in Hartree potential    :           0.00000000 Ha           0.00000000 eV
  | Sum of eigenvalues per atom                           :        -391.95465608 eV
  | Total energy (T->0) per atom                          :        -647.24804386 eV  <-- do not rely on this value for anything but (periodic) metals
  | Electronic free energy per atom                       :        -647.24804386 eV
  Initialize hartree_potential_storage
  Max. number of atoms included in rho_multipole:           68

  End scf initialization - timings             :  max(cpu_time)    wall_clock(cpu1)
  | Time for scf. initialization               :       14.858 s          14.959 s
  | Boundary condition initialization          :        0.001 s           0.011 s
  | Integration                                :       11.355 s          11.364 s
  | Solution of K.-S. eqns.                    :        0.424 s           0.442 s
  | Grid partitioning                          :        1.237 s           1.247 s
  | Preloading free-atom quantities on grid    :        0.014 s           0.016 s
  | Free-atom superposition energy             :        0.123 s           0.124 s
  | Total energy evaluation                    :        0.001 s           0.005 s

  Partial memory accounting:
  | Current value for overall tracked memory usage on task 0  :           7.810 MB
  | Peak value for overall tracked memory usage on task 0     :          39.688 MB after allocating zora_vector2
  | Largest tracked array allocation on task 0 so far         :          12.084 MB  when allocating hamiltonian_shell
  Note:  These values currently only include a subset of arrays which are explicitly tracked.
  The "true" memory usage will be greater.
------------------------------------------------------------

------------------------------------------------------------
          Begin self-consistency iteration #    1

  Date     :  20210620, Time     :  165548.228
------------------------------------------------------------
  Evaluating new KS density.
  Integration grid: deviation in total charge (<rho> - N_e) =   1.136868E-13
  Pulay mixing of updated and previous charge densities.

  Evaluating partitioned Hartree potential by multipole expansion.
  | Analytical far-field extrapolation by fixed multipoles:
  | Hartree multipole sum: apparent total charge =  -0.267695E-03
  Summing up the Hartree potential with load balancing.
  Time summed over all CPUs for potential: real work       46.840 s, elapsed       89.897 s
  | RMS charge density error from multipole expansion :   0.155964E-01

  Start compute_balanced_batch_distribution
  Done load balancing, time needed:      0.011 s
  Integrating Hamiltonian matrix: batch-based integration with load balancing
  Time summed over all CPUs for integration: real work      288.200 s, elapsed      314.697 s
  Time get_set_full_local_matrix_scalapack:     0.030164 s
  Start compute_balanced_batch_distribution
  Done load balancing, time needed:      0.010 s

  Updating Kohn-Sham eigenvalues and eigenvectors using ELSI and the ELPA eigensolver.
  Finished transformation to standard eigenproblem
  | Time :     0.035 s
  Starting ELPA eigensolver
  Finished solving standard eigenproblem
  | Time :     0.170 s
  Finished back-transformation of eigenvectors
  | Time :     0.007 s

  Obtaining occupation numbers and chemical potential using ELSI.
  | Chemical potential (Fermi level):    -5.63060500 eV
  Writing Kohn-Sham eigenvalues.

  State    Occupation    Eigenvalue [Ha]    Eigenvalue [eV]
      1       2.00000         -10.000816         -272.13604
      2       2.00000          -9.999394         -272.09736
      3       2.00000          -9.999114         -272.08974
      4       2.00000          -9.998527         -272.07376
      5       2.00000          -9.994940         -271.97616
      6       2.00000          -9.994408         -271.96168
      7       2.00000          -9.985614         -271.72239
      8       2.00000          -9.985171         -271.71033
      9       2.00000          -9.984018         -271.67896
     10       2.00000          -9.978891         -271.53945
     11       2.00000          -9.978625         -271.53221
     12       2.00000          -9.977080         -271.49017
     13       2.00000          -9.976790         -271.48227
     14       2.00000          -9.976419         -271.47217
     15       2.00000          -9.975514         -271.44755
     16       2.00000          -9.975248         -271.44030
     17       2.00000          -9.947895         -270.69600
     18       2.00000          -9.945895         -270.64156
     19       2.00000          -9.945816         -270.63942
     20       2.00000          -9.945628         -270.63431
     21       2.00000          -9.945615         -270.63397
     22       2.00000          -9.945180         -270.62211
     23       2.00000          -9.945137         -270.62095
     24       2.00000          -9.944941         -270.61562
     25       2.00000          -9.944772         -270.61101
     26       2.00000          -9.943859         -270.58617
     27       2.00000          -9.943840         -270.58564
     28       2.00000          -9.942598         -270.55186
     29       2.00000          -9.942114         -270.53868
     30       2.00000          -9.941445         -270.52047
     31       2.00000          -9.940700         -270.50022
     32       2.00000          -9.939936         -270.47942
     33       2.00000          -9.939261         -270.46105
     34       2.00000          -9.937961         -270.42569
     35       2.00000          -9.937690         -270.41831
     36       2.00000          -9.937292         -270.40747
     37       2.00000          -9.936834         -270.39500
     38       2.00000          -9.935210         -270.35082
     39       2.00000          -9.934924         -270.34304
     40       2.00000          -9.934632         -270.33509
     41       2.00000          -9.934196         -270.32322
     42       2.00000          -9.933819         -270.31297
     43       2.00000          -0.887433          -24.14829
     44       2.00000          -0.864073          -23.51261
     45       2.00000          -0.847180          -23.05295
     46       2.00000          -0.844578          -22.98214
     47       2.00000          -0.830825          -22.60789
     48       2.00000          -0.828839          -22.55386
     49       2.00000          -0.827592          -22.51991
     50       2.00000          -0.793381          -21.58901
     51       2.00000          -0.787153          -21.41952
     52       2.00000          -0.768196          -20.90368
     53       2.00000          -0.759891          -20.67768
     54       2.00000          -0.745840          -20.29535
     55       2.00000          -0.744421          -20.25672
     56       2.00000          -0.738512          -20.09594
     57       2.00000          -0.735682          -20.01893
     58       2.00000          -0.733472          -19.95879
     59       2.00000          -0.732520          -19.93289
     60       2.00000          -0.713245          -19.40838
     61       2.00000          -0.710658          -19.33799
     62       2.00000          -0.708100          -19.26837
     63       2.00000          -0.699361          -19.03059
     64       2.00000          -0.652852          -17.76501
     65       2.00000          -0.637169          -17.33826
     66       2.00000          -0.630392          -17.15383
     67       2.00000          -0.628367          -17.09873
     68       2.00000          -0.617331          -16.79844
     69       2.00000          -0.609438          -16.58366
     70       2.00000          -0.607876          -16.54114
     71       2.00000          -0.605699          -16.48192
     72       2.00000          -0.605161          -16.46727
     73       2.00000          -0.588085          -16.00260
     74       2.00000          -0.587385          -15.98356
     75       2.00000          -0.578641          -15.74561
     76       2.00000          -0.573046          -15.59338
     77       2.00000          -0.550603          -14.98266
     78       2.00000          -0.547675          -14.90301
     79       2.00000          -0.533950          -14.52952
     80       2.00000          -0.530332          -14.43107
     81       2.00000          -0.515678          -14.03232
     82       2.00000          -0.515516          -14.02789
     83       2.00000          -0.511080          -13.90720
     84       2.00000          -0.495564          -13.48500
     85       2.00000          -0.494721          -13.46205
     86       2.00000          -0.481815          -13.11085
     87       2.00000          -0.479957          -13.06031
     88       2.00000          -0.474761          -12.91891
     89       2.00000          -0.471429          -12.82823
     90       2.00000          -0.469410          -12.77329
     91       2.00000          -0.462525          -12.58594
     92       2.00000          -0.460211          -12.52297
     93       2.00000          -0.454023          -12.35460
     94       2.00000          -0.451796          -12.29400
     95       2.00000          -0.450578          -12.26085
[...]
    134       2.00000          -0.230315           -6.26720
    135       2.00000          -0.212853           -5.79202
    136       2.00000          -0.207913           -5.65760
    137       2.00000          -0.205898           -5.60276
    138       2.00000          -0.191220           -5.20335
    139       2.00000          -0.189285           -5.15070
    140       0.00000          -0.087845           -2.39039
    141       0.00000          -0.082721           -2.25096
    142       0.00000          -0.067647           -1.84078
    143       0.00000          -0.061864           -1.68340
    144       0.00000          -0.051751           -1.40823
    145       0.00000          -0.048591           -1.32224
    146       0.00000          -0.046428           -1.26338
    147       0.00000          -0.042726           -1.16263
    148       0.00000          -0.037629           -1.02393
    149       0.00000          -0.031641           -0.86100
    150       0.00000          -0.011545           -0.31417
    151       0.00000          -0.011337           -0.30849
    152       0.00000          -0.005766           -0.15691
    153       0.00000          -0.001774           -0.04827
    154       0.00000          -0.000252           -0.00686
    155       0.00000           0.002227            0.06061
    156       0.00000           0.003354            0.09126
    157       0.00000           0.009251            0.25173
    158       0.00000           0.010846            0.29513
    159       0.00000           0.013876            0.37759
    160       0.00000           0.015531            0.42261
    161       0.00000           0.017297            0.47067
    162       0.00000           0.019911            0.54180
    163       0.00000           0.026499            0.72108
    164       0.00000           0.027841            0.75759
    165       0.00000           0.032584            0.88664
    166       0.00000           0.039534            1.07579
    167       0.00000           0.042057            1.14444
    168       0.00000           0.044492            1.21070
    169       0.00000           0.047380            1.28927
    170       0.00000           0.050709            1.37987
    171       0.00000           0.056183            1.52882
    172       0.00000           0.057444            1.56314
    173       0.00000           0.066896            1.82033
    174       0.00000           0.068550            1.86533
    175       0.00000           0.071651            1.94973
    176       0.00000           0.072777            1.98037
    177       0.00000           0.082460            2.24384
    178       0.00000           0.083540            2.27323
    179       0.00000           0.089762            2.44254
    180       0.00000           0.093337            2.53982
    181       0.00000           0.096286            2.62008
    182       0.00000           0.100920            2.74617
    183       0.00000           0.103843            2.82570
    184       0.00000           0.104672            2.84828
    185       0.00000           0.106760            2.90509
    186       0.00000           0.108532            2.95331
    187       0.00000           0.113130            3.07843
    188       0.00000           0.114959            3.12819
    189       0.00000           0.116256            3.16348
    190       0.00000           0.118811            3.23301
    191       0.00000           0.124105            3.37706
    192       0.00000           0.126641            3.44607
    193       0.00000           0.129650            3.52796
    194       0.00000           0.133509            3.63295
    195       0.00000           0.146154            3.97705
    196       0.00000           0.148139            4.03108
    197       0.00000           0.149796            4.07616
    198       0.00000           0.151050            4.11027
    199       0.00000           0.154708            4.20982
    200       0.00000           0.155292            4.22572
    201       0.00000           0.155497            4.23130
    202       0.00000           0.156022            4.24556
    203       0.00000           0.162710            4.42757
    204       0.00000           0.163076            4.43752
    205       0.00000           0.166474            4.52999
    206       0.00000           0.168652            4.58925
    207       0.00000           0.170226            4.63207
    208       0.00000           0.175888            4.78617
    209       0.00000           0.176957            4.81524
    210       0.00000           0.177977            4.84299
    211       0.00000           0.179494            4.88428
    212       0.00000           0.180591            4.91412
    213       0.00000           0.181593            4.94139
    214       0.00000           0.185353            5.04371
    215       0.00000           0.186650            5.07901
    216       0.00000           0.189421            5.15441
    217       0.00000           0.190285            5.17793
    218       0.00000           0.192162            5.22899
    219       0.00000           0.193245            5.25847
    220       0.00000           0.195567            5.32164
    221       0.00000           0.196883            5.35746
    222       0.00000           0.198139            5.39163
    223       0.00000           0.198780            5.40908
    224       0.00000           0.202059            5.49830
    225       0.00000           0.204301            5.55930
    226       0.00000           0.205834            5.60104
    227       0.00000           0.207958            5.65882
    228       0.00000           0.211769            5.76252
    229       0.00000           0.214007            5.82341
    230       0.00000           0.216072            5.87963
    231       0.00000           0.217773            5.92589
    232       0.00000           0.219253            5.96618
    233       0.00000           0.221321            6.02246
    234       0.00000           0.222688            6.05966
    235       0.00000           0.225946            6.14830
    236       0.00000           0.228225            6.21031
    237       0.00000           0.228922            6.22929
    238       0.00000           0.230672            6.27692
    239       0.00000           0.233384            6.35071
    240       0.00000           0.236291            6.42981
    241       0.00000           0.240082            6.53296
    242       0.00000           0.241845            6.58094
    243       0.00000           0.244304            6.64786
    244       0.00000           0.246338            6.70320
    245       0.00000           0.247129            6.72471
    246       0.00000           0.247674            6.73955
    247       0.00000           0.250542            6.81759
    248       0.00000           0.253052            6.88588
    249       0.00000           0.254791            6.93320
    250       0.00000           0.257813            7.01546
    251       0.00000           0.259747            7.06807
    252       0.00000           0.262854            7.15263
    253       0.00000           0.263303            7.16484
    254       0.00000           0.264359            7.19357
    255       0.00000           0.266539            7.25290
    256       0.00000           0.269874            7.34364
    257       0.00000           0.271147            7.37828
    258       0.00000           0.272971            7.42793
    259       0.00000           0.274237            7.46236
    260       0.00000           0.280541            7.63390
    261       0.00000           0.282043            7.67478
    262       0.00000           0.283347            7.71027
    263       0.00000           0.283482            7.71393
    264       0.00000           0.289392            7.87475
    265       0.00000           0.289605            7.88056
    266       0.00000           0.292358            7.95547
    267       0.00000           0.294446            8.01228
    268       0.00000           0.295981            8.05404
    269       0.00000           0.297470            8.09456
    270       0.00000           0.300662            8.18143
    271       0.00000           0.302549            8.23278
    272       0.00000           0.302720            8.23742
    273       0.00000           0.305321            8.30820
    274       0.00000           0.309173            8.41301
    275       0.00000           0.313936            8.54262
    276       0.00000           0.315611            8.58821
    277       0.00000           0.317856            8.64931
    278       0.00000           0.321442            8.74687
    279       0.00000           0.322963            8.78828
    280       0.00000           0.327829            8.92068
    281       0.00000           0.331382            9.01736
    282       0.00000           0.336031            9.14386
    283       0.00000           0.338721            9.21707
    284       0.00000           0.340205            9.25746
    285       0.00000           0.344184            9.36571
    286       0.00000           0.346800            9.43690
    287       0.00000           0.347866            9.46591
    288       0.00000           0.353224            9.61170
    289       0.00000           0.354558            9.64801
    290       0.00000           0.356939            9.71281
    291       0.00000           0.358850            9.76480
    292       0.00000           0.362991            9.87749
    293       0.00000           0.363827            9.90023
    294       0.00000           0.369201           10.04648
    295       0.00000           0.369814           10.06316
    296       0.00000           0.371818           10.11767
    297       0.00000           0.374922           10.20214
    298       0.00000           0.379365           10.32305
    299       0.00000           0.380187           10.34542
    300       0.00000           0.381321           10.37627
    301       0.00000           0.387394           10.54153
    302       0.00000           0.391362           10.64950
    303       0.00000           0.395394           10.75921
    304       0.00000           0.396702           10.79481

  Highest occupied state (VBM) at     -5.15070458 eV
  | Occupation number:      2.00000000

  Lowest unoccupied state (CBM) at    -2.39039257 eV
  | Occupation number:      0.00000000

  Overall HOMO-LUMO gap:      2.76031201 eV.

  Total energy components:
  | Sum of eigenvalues            :        -919.05611393 Ha      -25008.78929331 eV
  | XC energy correction          :        -236.14948490 Ha       -6425.95443315 eV
  | XC potential correction       :         303.37009678 Ha        8255.12034924 eV
  | Free-atom electrostatic energy:        -703.92956282 Ha      -19154.89799469 eV
  | Hartree energy correction     :         -59.69379115 Ha       -1624.35070311 eV
  | Entropy correction            :           0.00000000 Ha           0.00000000 eV
  | ---------------------------
  | Total energy                  :       -1615.45885602 Ha      -43958.87207502 eV
  | Total energy, T -> 0          :       -1615.45885602 Ha      -43958.87207502 eV  <-- do not rely on this value for anything but (periodic) metals
  | Electronic free energy        :       -1615.45885602 Ha      -43958.87207502 eV

  Derived energy quantities:
  | Kinetic energy                :        1611.28781720 Ha       43845.37233402 eV
  | Electrostatic energy          :       -2990.59718832 Ha      -81378.28997590 eV
  | Energy correction for multipole
  | error in Hartree potential    :          -0.19715115 Ha          -5.36475570 eV
  | Sum of eigenvalues per atom                           :        -367.77631314 eV
  | Total energy (T->0) per atom                          :        -646.45400110 eV  <-- do not rely on this value for anything but (periodic) metals
  | Electronic free energy per atom                       :        -646.45400110 eV
  End evaluation of scaled ZORA corrections.
  | Time for scaled ZORA corrections           :       10.630 s          10.640 s
------------------------------------------------------------

  Energy and forces in a compact form:
  | Total energy uncorrected      :         -0.439588720750229E+05 eV
  | Total energy corrected        :         -0.439588720750229E+05 eV  <-- do not rely on this value for anything but (periodic) metals
  | Electronic free energy        :         -0.439588720750229E+05 eV

  ------------------------------------ 
  Start decomposition of the XC Energy 
  ------------------------------------ 
  X and C from original XC functional choice 
  Hartree-Fock Energy :          0.000000000 Ha              0.000000000 eV
  X Energy            :       -226.818282944 Ha          -6172.039508816 eV
  C Energy            :         -9.331201958 Ha           -253.914924333 eV
  Total XC Energy     :       -236.149484902 Ha          -6425.954433149 eV
  ------------------------------------ 
  LDA X and C from self-consistent density 
  X Energy LDA        :       -205.453005156 Ha          -5590.660719972 eV
  C Energy LDA        :        -17.947953027 Ha           -488.388650816 eV
  ------------------------------------ 
  End decomposition of the XC Energy 
  ------------------------------------ 

------------------------------------------------------------

------------------------------------------------------------------------------
  Final output of selected total energy values:

  The following output summarizes some interesting total energy values
  at the end of a run (AFTER all relaxation, molecular dynamics, etc.).

  | Total energy of the DFT / Hartree-Fock s.c.f. calculation      :         -43958.872075023 eV
  | Final zero-broadening corrected energy (caution - metals only) :         -43958.872075023 eV
  | For reference only, the value of 1 Hartree used in FHI-aims is :             27.211384500 eV

  Before relying on these values, please be sure to understand exactly which
  total energy value is referred to by a given number. Different objects may
  all carry the same name 'total energy'. Definitions:

  Total energy of the DFT / Hartree-Fock s.c.f. calculation:
  | Note that this energy does not include ANY quantities calculated after the
  | s.c.f. cycle, in particular not ANY RPA, MP2, etc. many-body perturbation terms.
  | Scalar relativistic effects have been included in the 'scaled ZORA' approximation.

  Final zero-broadening corrected energy:
  | For metallic systems only, a broadening of the occupation numbers at the Fermi
  | level can be extrapolated back to zero broadening by an electron-gas inspired
  | formula. For all systems that are not real metals, this value can be
  | meaningless and should be avoided.

------------------------------------------------------------------------------
  Methods described in the following list of references were used in this FHI-aims run.
  If you publish the results, please make sure to cite these reference if they apply.
  FHI-aims is an academic code, and for our developers (often, Ph.D. students
  and postdocs), scientific credit in the community is essential.
  Thank you for helping us!

  For any use of FHI-aims, please cite:

    Volker Blum, Ralf Gehrke, Felix Hanke, Paula Havu, Ville Havu,
    Xinguo Ren, Karsten Reuter, and Matthias Scheffler
    'Ab initio molecular simulations with numeric atom-centered orbitals'
    Computer Physics Communications 180, 2175-2196 (2009)
    http://dx.doi.org/10.1016/j.cpc.2009.06.022


  The scalable eigensolver library ELPA was used in your run.
  ELPA is essential especially for large systems on hundreds or thousands of CPUs.
  For ELPA, please cite:

    Andreas Marek, Volker Blum, Rainer Johanni, Ville Havu, Bruno Lang,
    Thomas Auckenthaler, Alexander Heinecke, Hans-Joachim Bungartz, and Hermann Lederer,
    'The ELPA Library - Scalable Parallel Eigenvalue Solutions
    for Electronic Structure Theory and Computational Science'
    The Journal of Physics: Condensed Matter 26, 213201 (2014).
    http://dx.doi.org/10.1088/0953-8984/26/21/213201


  The ELSI infrastructure was used in your run to solve the Kohn-Sham electronic structure.
  Please check out http://elsi-interchange.org to learn more.
  If scalability is important for your project, please acknowledge ELSI by citing:

    V. W-z. Yu, F. Corsetti, A. Garcia, W. P. Huhn, M. Jacquelin, W. Jia,
    B. Lange, L. Lin, J. Lu, W. Mi, A. Seifitokaldani, A. Vazquez-Mayagoitia,
    C. Yang, H. Yang, and V. Blum
    'ELSI: A unified software interface for Kohn-Sham electronic structure solvers'
    Computer Physics Communications 222, 267-285 (2018).
    http://dx.doi.org/10.1016/j.cpc.2017.09.007


  For the real-space grid partitioning and parallelization used in this calculation, please cite:

    Ville Havu, Volker Blum, Paula Havu, and Matthias Scheffler,
    'Efficient O(N) integration for all-electron electronic structure calculation'
    'using numerically tabulated basis functions'
    Journal of Computational Physics 228, 8367-8379 (2009).
    http://dx.doi.org/10.1016/j.jcp.2009.08.008

  Of course, there are many other important community references, e.g., those cited in the
  above references. Our list is limited to references that describe implementations in the
  FHI-aims code. The reason is purely practical (length of this list) - please credit others as well.

------------------------------------------------------------
          Leaving FHI-aims.
          Date     :  20210620, Time     :  165846.810

          Computational steps:
          | Number of self-consistency cycles          :           18
          | Number of SCF (re)initializations          :            1

          Detailed time accounting                     :  max(cpu_time)    wall_clock(cpu1)
          | Total time                                 :      193.798 s         194.150 s
          | Preparation time                           :        0.196 s           0.182 s
          | Boundary condition initalization           :        0.001 s           0.011 s
          | Grid partitioning                          :        1.237 s           1.247 s
          | Preloading free-atom quantities on grid    :        0.014 s           0.016 s
          | Free-atom superposition energy             :        0.123 s           0.124 s
          | Total time for integrations                :      108.634 s         108.647 s
          | Total time for solution of K.-S. equations :        5.585 s           5.610 s
          | Total time for density update              :       47.036 s          46.975 s
          | Total time for mixing                      :        0.209 s           0.212 s
          | Total time for Hartree multipole update    :        0.244 s           0.251 s
          | Total time for Hartree multipole sum       :       17.799 s          17.804 s
          | Total time for total energy evaluation     :        0.011 s           0.036 s
          | Total time for scaled ZORA corrections     :       10.630 s          10.640 s

          Partial memory accounting:
          | Residual value for overall tracked memory usage across tasks :     0.000000 MB (should be 0.000000 MB)
          | Peak values for overall tracked memory usage (after allocating zora_vector2):
          |   Minimum:       39.840 MB (on task  8)
          |   Maximum:       52.690 MB (on task 40)
          |   Average:       45.225 MB
          | Largest tracked array allocation (hamiltonian_shell):
          |   Minimum:       12.084 MB (on task  1)
          |   Maximum:       12.084 MB (on task  1)
          |   Average:       12.084 MB
          Note:  These values currently only include a subset of arrays which are explicitly tracked.
          The "true" memory usage will be greater.

          Have a nice day.
------------------------------------------------------------
