  MPI-parallelism will be employed.
------------------------------------------------------------
          Invoking FHI-aims ...
          Version 180607
          Git rev. (modified): 6724847 Fix JSON memory corruption in scf_solver
          Compiled on 2018/06/27 at 16:00:31 on host coe.psc.edu.

          When using FHI-aims, please cite the following reference:

          Volker Blum, Ralf Gehrke, Felix Hanke, Paula Havu,
          Ville Havu, Xinguo Ren, Karsten Reuter, and Matthias Scheffler,
          'Ab Initio Molecular Simulations with Numeric Atom-Centered Orbitals',
          Computer Physics Communications 180, 2175-2196 (2009)

          For any questions about FHI-aims, please visit the aimsclub website
          with its forums and wiki. Contributions to both the forums and the
          wiki are warmly encouraged - they are for you, and everyone is welcome there.

------------------------------------------------------------



  Date     :  20210620, Time     :  175120.178
  Time zero on CPU 1             :   0.182284000000000E+00  s.
  Internal wall clock time zero  :           393443480.178  s.

  FHI-aims created a unique identifier for this run for later identification
  aims_uuid : 4A9384FB-2469-40A5-A3E4-CDB7C32FD682

  Using       56 parallel tasks.
  Task        0 on host d024 reporting.
  Task        1 on host d024 reporting.
  Task        2 on host d024 reporting.
  Task        3 on host d024 reporting.
  Task        4 on host d024 reporting.
  Task        5 on host d024 reporting.
  Task        6 on host d024 reporting.
  Task        7 on host d024 reporting.
  Task        8 on host d024 reporting.
  Task        9 on host d024 reporting.
  Task       10 on host d024 reporting.
  Task       11 on host d024 reporting.
  Task       12 on host d024 reporting.
  Task       13 on host d024 reporting.
  Task       14 on host d024 reporting.
  Task       15 on host d024 reporting.
  Task       16 on host d024 reporting.
  Task       17 on host d024 reporting.
  Task       18 on host d024 reporting.
  Task       19 on host d024 reporting.
  Task       20 on host d024 reporting.
  Task       21 on host d024 reporting.
  Task       22 on host d024 reporting.
  Task       23 on host d024 reporting.
  Task       24 on host d024 reporting.
  Task       25 on host d024 reporting.
  Task       26 on host d024 reporting.
  Task       27 on host d024 reporting.
  Task       28 on host d024 reporting.
  Task       29 on host d024 reporting.
  Task       30 on host d024 reporting.
  Task       31 on host d024 reporting.
  Task       32 on host d024 reporting.
  Task       33 on host d024 reporting.
  Task       34 on host d024 reporting.
  Task       35 on host d024 reporting.
  Task       36 on host d024 reporting.
  Task       37 on host d024 reporting.
  Task       38 on host d024 reporting.
  Task       39 on host d024 reporting.
  Task       40 on host d024 reporting.
  Task       41 on host d024 reporting.
  Task       42 on host d024 reporting.
  Task       43 on host d024 reporting.
  Task       44 on host d024 reporting.
  Task       45 on host d024 reporting.
  Task       46 on host d024 reporting.
  Task       47 on host d024 reporting.
  Task       48 on host d024 reporting.
  Task       49 on host d024 reporting.
  Task       50 on host d024 reporting.
  Task       51 on host d024 reporting.
  Task       52 on host d024 reporting.
  Task       53 on host d024 reporting.
  Task       54 on host d024 reporting.
  Task       55 on host d024 reporting.

  Performing system and environment tests:
  *** Environment variable OMP_NUM_THREADS is not set
  *** For performance reasons you might want to set it to 1
  | Stacksize not measured: no C compiler
  | Checking for scalapack...
  | Testing pdtran()...
  | All pdtran() tests passed.

  Obtaining array dimensions for all initial allocations:
  
  -----------------------------------------------------------------------
  Parsing control.in (first pass over file, find array dimensions only).
  The contents of control.in will be repeated verbatim below
  unless switched off by setting 'verbatim_writeout .false.' .
  in the first line of control.in .
  -----------------------------------------------------------------------
  
  #===============================================================================
  # FHI-aims file: ./Runs/es/control.in
  # Created using the Atomic Simulation Environment (ASE)
  # Mon Jan 13 16:04:38 2020
  #===============================================================================
  xc                                 pbe
  relativistic                       zora scalar 1e-12
  occupation_type                    gaussian 0.0001
  load_balancing                     .true.
  KS_method                          scalapack_fast
  mixer                              pulay
  n_max_pulay                        5
  charge_mix_param                   0.4
  sc_accuracy_etot                   1e-6
  sc_accuracy_eev                    1e-4
  sc_accuracy_rho                    1e-6
  sc_iter_limit                      100
  prodbas_threshold                  1e-4
  basis_threshold                    1e-5
  override_illconditioning           .true.
  use_logsbt                         .true.
  spin                               none
  charge                             0
  #===============================================================================
  
  ################################################################################
  #
  #  FHI-aims code project
  # Volker Blum, Fritz Haber Institute Berlin, 2009
  #
  #  Suggested "tight" defaults for H atom (to be pasted into control.in file)
  #
  ################################################################################
    species        H
  #     global species definitions
      nucleus             1
      mass                1.00794
  #
      l_hartree           6
  #
      cut_pot             4.0  2.0  1.0
      basis_dep_cutoff    1e-4
  #
      radial_base         24 7.0
      radial_multiplier   2
      angular_grids       specified
        division   0.1930   50
        division   0.3175  110
        division   0.4293  194
        division   0.5066  302
        division   0.5626  434
  #      division   0.5922  590
  #      division   0.6227  974
  #      division   0.6868 1202
  #      outer_grid  770
        outer_grid  434
  ################################################################################
  #
  #  Definition of "minimal" basis
  #
  ################################################################################
  #     valence basis states
      valence      1  s   1.
  #     ion occupancy
      ion_occ      1  s   0.5
  ################################################################################
  #
  #  Suggested additional basis functions. For production calculations,
  #  uncomment them one after another (the most important basis functions are
  #  listed first).
  #
  #  Basis constructed for dimers: 0.5 A, 0.7 A, 1.0 A, 1.5 A, 2.5 A
  #
  ################################################################################
  #  "First tier" - improvements: -1014.90 meV to -62.69 meV
       hydro 2 s 2.1
       hydro 2 p 3.5
  #  "Second tier" - improvements: -12.89 meV to -1.83 meV
       hydro 1 s 0.85
       hydro 2 p 3.7
       hydro 2 s 1.2
       hydro 3 d 7
  #  "Third tier" - improvements: -0.25 meV to -0.12 meV
  #     hydro 4 f 11.2
  #     hydro 3 p 4.8
  #     hydro 4 d 9
  #     hydro 3 s 3.2
  ################################################################################
  #
  # For methods that use the localized form of the "resolution of identity" for
  # the two-electron Coulomb operator (RI_method LVL), particularly Hartree-Fock and
  # hybrid density functional calculations, the highest accuracy can be obtained by
  # uncommenting the line beginning with "for_aux"  below, thus adding an extra g radial
  # function to the construction of the product basis set for the expansion.
  # See Ref. New J. Phys. 17, 093020 (2015) for more information, particularly Figs. 1 and 6.
  #
  ################################################################################
  #
  # for_aux hydro 5 g 6.0
  ################################################################################
  #
  #  FHI-aims code project
  # Volker Blum, Fritz Haber Institute Berlin, 2009
  #
  #  Suggested "tight" defaults for C atom (to be pasted into control.in file)
  #
  ################################################################################
    species        C
  #     global species definitions
      nucleus             6
      mass                12.0107
  #
      l_hartree           6
  #
      cut_pot             4.0  2.0  1.0
      basis_dep_cutoff    1e-4
  #
      radial_base         34 7.0
      radial_multiplier   2
      angular_grids specified
        division   0.2187   50
        division   0.4416  110
        division   0.6335  194
        division   0.7727  302
        division   0.8772  434
  #      division   0.9334  590
  #      division   0.9924  770
  #      division   1.0230  974
  #      division   1.5020 1202
  #     outer_grid  974
        outer_grid  434
  ################################################################################
  #
  #  Definition of "minimal" basis
  #
  ################################################################################
  #     valence basis states
      valence      2  s   2.
      valence      2  p   2.
  #     ion occupancy
      ion_occ      2  s   1.
      ion_occ      2  p   1.
  ################################################################################
  #
  #  Suggested additional basis functions. For production calculations,
  #  uncomment them one after another (the most important basis functions are
  #  listed first).
  #
  #  Constructed for dimers: 1.0 A, 1.25 A, 1.5 A, 2.0 A, 3.0 A
  #
  ################################################################################
  #  "First tier" - improvements: -1214.57 meV to -155.61 meV
       hydro 2 p 1.7
       hydro 3 d 6
       hydro 2 s 4.9
  #  "Second tier" - improvements: -67.75 meV to -5.23 meV
       hydro 4 f 9.8
       hydro 3 p 5.2
       hydro 3 s 4.3
       hydro 5 g 14.4
       hydro 3 d 6.2
  #  "Third tier" - improvements: -2.43 meV to -0.60 meV
  #     hydro 2 p 5.6
  #     hydro 2 s 1.4
  #     hydro 3 d 4.9
  #     hydro 4 f 11.2
  #  "Fourth tier" - improvements: -0.39 meV to -0.18 meV
  #     hydro 2 p 2.1
  #     hydro 5 g 16.4
  #     hydro 4 d 13.2
  #     hydro 3 s 13.6
  #     hydro 4 f 17.6
  #  Further basis functions - improvements: -0.08 meV and below
  #     hydro 3 s 2
  #     hydro 3 p 6
  #     hydro 4 d 20
  ################################################################################
  #
  # For methods that use the localized form of the "resolution of identity" for
  # the two-electron Coulomb operator (RI_method LVL), particularly Hartree-Fock and
  # hybrid density functional calculations, the highest accuracy can be obtained by
  # uncommenting the line beginning with "for_aux"  below, thus adding an extra g radial
  # function to the construction of the product basis set for the expansion.
  # See Ref. New J. Phys. 17, 093020 (2015) for more information, particularly Figs. 1 and 6.
  #
  ################################################################################
  #
  # for_aux hydro 5 g 6.0
  
  -----------------------------------------------------------------------
  Completed first pass over input file control.in .
  -----------------------------------------------------------------------
  
  
  -----------------------------------------------------------------------
  Parsing geometry.in (first pass over file, find array dimensions only).
  The contents of geometry.in will be repeated verbatim below
  unless switched off by setting 'verbatim_writeout .false.' .
  in the first line of geometry.in .
  -----------------------------------------------------------------------
  
  #=======================================================
  # FHI-aims file: geometry.in
  # Created using the Atomic Simulation Environment (ASE)
  # Sun Jun 20 15:47:02 2021
  #=======================================================
  atom 4.0051050000000004 20.5850760000000008 36.7166509999999988 H
  atom 4.3199069999999997 19.7069940000000017 36.1540559999999971 C
  atom 3.4222399999999999 18.6627100000000006 35.9297120000000021 C
  atom 5.6120450000000002 19.6291170000000008 35.6513810000000007 C
  atom 2.4105910000000002 18.7297009999999986 36.3247009999999975 H
  atom 3.8307099999999998 17.5539729999999992 35.2060230000000018 C
  atom 5.9922670000000000 18.5013229999999993 34.9585209999999975 C
  atom 6.5720780000000003 20.7505139999999990 35.9133569999999978 C
  atom 3.1230430000000000 16.7430839999999996 35.0313239999999979 H
  atom 5.0959310000000002 17.4597629999999988 34.7616780000000034 C
  atom 7.0071329999999996 18.4178180000000005 34.5713480000000004 H
  atom 6.9961620000000000 21.5946420000000003 34.8660339999999991 C
  atom 7.0452029999999999 20.9767340000000004 37.2294569999999965 C
  atom 5.4305709999999996 16.5720880000000008 34.2261480000000020 H
  atom 6.5086570000000004 21.4328170000000000 33.5470380000000006 C
  atom 7.8892329999999999 22.6878390000000003 35.1394439999999975 C
  atom 6.6587839999999998 20.1364359999999998 38.3039910000000035 C
  atom 7.9382729999999997 22.0699320000000014 37.5028670000000020 C
  atom 5.8116500000000002 20.6215159999999997 33.3562739999999991 H
  atom 6.8881920000000001 22.2626120000000007 32.5031889999999990 C
  atom 8.2756519999999991 23.5281370000000010 34.0649099999999976 C
  atom 8.3623580000000004 22.9140590000000017 36.4555440000000033 C
  atom 5.9944670000000002 19.3030660000000012 38.0955680000000001 H
  atom 7.0988790000000002 20.3433129999999984 39.6051840000000013 C
  atom 8.4257779999999993 22.2317560000000007 38.8218630000000005 C
  atom 6.3610439999999997 22.0906179999999992 31.1645089999999989 C
  atom 7.8355569999999997 23.3212599999999988 32.7637169999999998 C
  atom 8.9399689999999996 24.3615080000000006 34.2733330000000009 H
  atom 9.3223909999999997 24.0354559999999999 36.7175200000000004 C
  atom 6.6474390000000003 19.5078120000000013 40.6996910000000014 C
  atom 8.0462430000000005 21.4019620000000010 39.8657120000000020 C
  atom 9.1227859999999996 23.0430570000000010 39.0126270000000019 H
  atom 5.3498619999999999 21.0522360000000006 30.8321910000000017 C
  atom 6.8141379999999998 22.9137379999999986 30.1785549999999994 C
  atom 8.2869969999999995 24.1567609999999995 31.6692099999999996 C
  atom 8.9421689999999998 25.1632509999999989 37.4103800000000035 C
  atom 10.6145289999999992 23.9575800000000001 36.2148449999999968 C
  atom 5.6377699999999997 18.4307160000000003 40.4973469999999978 C
  atom 7.1685379999999999 19.7353090000000009 41.9424100000000024 C
  atom 8.5733910000000009 21.5739559999999990 41.2043919999999986 C
  atom 4.1550649999999996 20.9363819999999983 31.5311300000000010 C
  atom 5.5573370000000004 20.2099149999999987 29.7436180000000014 C
  atom 6.4329669999999997 22.8060949999999991 29.1636540000000011 H
  atom 7.7658980000000000 23.9292639999999999 30.4264909999999986 C
  atom 9.2966660000000001 25.2338570000000004 31.8715529999999987 C
  atom 7.9273020000000001 25.2467560000000013 37.7975530000000006 H
  atom 9.8385049999999996 26.2048109999999994 37.6072229999999976 C
  atom 10.9293309999999995 23.0794980000000010 35.6522500000000022 H
  atom 11.5121959999999994 25.0018640000000012 36.4391889999999989 C
  atom 4.4035339999999996 18.6701470000000000 39.9273700000000034 C
  atom 5.9119859999999997 17.1303710000000002 40.9434290000000018 C
  atom 6.8421240000000001 19.1255650000000017 42.7830470000000034 H
  atom 8.1202980000000000 20.7508349999999986 42.1903459999999981 C
  atom 9.5845730000000007 22.6123380000000012 41.5367099999999994 C
  atom 3.2083719999999998 19.9922350000000009 31.1562589999999986 C
  atom 3.9370470000000002 21.6030370000000005 32.3640960000000035 H
  atom 4.5970500000000003 19.2733349999999994 29.3759839999999990 C
  atom 6.4817679999999998 20.2825729999999993 29.1714699999999993 H
  atom 8.0923119999999997 24.5390090000000001 29.5858540000000012 H
  atom 9.0224499999999992 26.5342030000000015 31.4254719999999992 C
  atom 10.5309019999999993 24.9944270000000017 32.4415309999999977 C
  atom 9.5038649999999993 27.0924860000000010 38.1427529999999990 H
  atom 11.1037260000000000 26.1106009999999991 37.1628779999999992 C
  atom 12.5238449999999997 24.9348719999999986 36.0441999999999965 H
  atom 3.4665460000000001 17.6527460000000005 39.7652640000000019 C
  atom 4.1444080000000003 19.6767089999999989 39.6008420000000001 H
  atom 4.9728620000000001 16.1140369999999997 40.7813230000000004 C
  atom 6.8809839999999998 16.9080009999999987 41.3913930000000008 H
  atom 8.5014679999999991 20.8584789999999991 43.2052470000000000 H
  atom 9.3770980000000002 23.4546589999999995 42.6252830000000031 C
  atom 10.7793709999999994 22.7281920000000000 40.8377709999999965 C
  atom 2.2740909999999999 19.9296000000000006 31.7140790000000017 H
  atom 3.4361519999999999 19.1640610000000002 30.0895420000000016 C
  atom 4.7851359999999996 18.6436390000000003 28.5075569999999985 H
  atom 8.0534520000000001 26.7565729999999995 30.9775080000000003 H
  atom 9.9615740000000006 27.5505369999999985 31.5875780000000006 C
  atom 10.7900279999999995 23.9878639999999983 32.7680590000000009 H
  atom 11.4678900000000006 26.0118270000000003 32.6036369999999991 C
  atom 11.8113930000000007 26.9214899999999986 37.3375770000000031 H
  atom 2.5047269999999999 17.8795360000000016 39.3081820000000022 H
  atom 3.7671999999999999 16.3838529999999984 40.1835560000000029 C
  atom 5.2171479999999999 15.1037309999999998 41.1103120000000004 H
  atom 8.4526679999999992 23.3820009999999989 43.1974310000000017 H
  atom 10.3373860000000004 24.3912389999999988 42.9929169999999985 C
  atom 10.9973890000000001 22.0615370000000013 40.0048049999999975 H
  atom 11.7260639999999992 23.6723390000000009 41.2126420000000024 C
  atom 2.6777959999999998 18.4378099999999989 29.7948549999999983 H
  atom 9.7172879999999999 28.5608420000000010 31.2585890000000006 H
  atom 11.1672360000000008 27.2807199999999987 32.1853449999999981 C
  atom 12.4297090000000008 25.7850380000000001 33.0607189999999989 H
  atom 3.0376900000000000 15.5853000000000002 40.0386730000000028 H
  atom 10.1493000000000002 25.0209350000000015 43.8613429999999980 H
  atom 11.4982830000000007 24.5005130000000015 42.2793589999999995 C
  atom 12.6603449999999995 23.7349730000000001 40.6548220000000029 H
  atom 11.8967449999999992 28.0792730000000006 32.3302279999999982 H
  atom 12.2566400000000009 25.2267629999999983 42.5740449999999981 H
  
  -----------------------------------------------------------------------
  Completed first pass over input file geometry.in .
  -----------------------------------------------------------------------
  

  Basic array size parameters:
  | Number of species                 :        2
  | Number of atoms                   :       96
  | Max. basis fn. angular momentum   :        4
  | Max. atomic/ionic basis occupied n:        2
  | Max. number of basis fn. types    :        2
  | Max. radial fns per species/type  :        8
  | Max. logarithmic grid size        :     1277
  | Max. radial integration grid size :       69
  | Max. angular integration grid size:      434
  | Max. angular grid division number :        8
  | Radial grid for Hartree potential :     1277
  | Number of spin channels           :        1

------------------------------------------------------------
          Reading file control.in.
------------------------------------------------------------
  XC: Using PBE gradient-corrected functionals.
  Scalar relativistic treatment of kinetic energy: ZORA.
  Threshold value for ZORA:   0.100000E-11
  Occupation type: Gaussian broadening, width =   0.100000E-03 eV.
  Since 'load_balancing .true.' is present in control.in, automatically turning on 'use_local_index .true.'.
  Using load balancing for integrations.
  Kohn-Sham electronic structure solved by the ELSI library.
  Using pulay charge density mixing.
  Pulay mixing - number of memorized iterations:    5
  Charge density mixing - mixing parameter:     0.4000
  Convergence accuracy of total energy:  0.1000E-05
  Convergence accuracy of sum of eigenvalues:  0.1000E-03
  Convergence accuracy of self-consistent charge density:  0.1000E-05
  Maximum number of s.-c. iterations  :   100
  * Ignoring prodbas_threshold
  Threshold for basis singularities:  0.1000E-04
  override_illconditioning: Explicitly overriding any built-in checks for an ill-conditioned overlap matrix.
  *** WARNING: If you use this flag, you should really know what you are doing.
  *** DO NOT keep this flag set by default in all your control.in files.
  Using 1D integrations for auxiliary 2-center integrals.
  Spin treatment: No spin polarisation.
  Charge =   0.000000E+00: Neutral system requested explicitly.
 
  Reading configuration options for species H                   .
  | Found nuclear charge :   1.0000
  | Found atomic mass :    1.00794000000000      amu
  | Found l_max for Hartree potential  :   6
  | Found cutoff potl. onset [A], width [A], scale factor :    4.00000    2.00000    1.00000
  | Threshold for basis-dependent cutoff potential is   0.100000E-03
  | Found data for basic radial integration grid :    24 points, outermost radius =    7.000 A
  | Found multiplier for basic radial grid :   2
  | Found angular grid specification: user-specified.
  | Specified grid contains     6 separate shells.
  | Check grid settings after all constraints further below.
  | Found free-atom valence shell :  1 s   1.000
  | No ionic wave fns used. Skipping ion_occ.
  | Found hydrogenic basis function :  2 s   2.100
  | Found hydrogenic basis function :  2 p   3.500
  | Found hydrogenic basis function :  1 s   0.850
  | Found hydrogenic basis function :  2 p   3.700
  | Found hydrogenic basis function :  2 s   1.200
  | Found hydrogenic basis function :  3 d   7.000
  Species H                   : Missing cutoff potential type.
  Defaulting to exp(1/x)/(1-x)^2 type cutoff potential.
  Species H : No 'logarithmic' tag. Using default grid for free atom:
  | Default logarithmic grid data [bohr] : 0.1000E-03 0.1000E+03 0.1012E+01
  Species H : On-site basis accuracy parameter (for Gram-Schmidt orthonormalisation) not specified.
  Using default value basis_acc =  0.1000000E-03.
  Species H                   : Using default innermost maximum threshold i_radial=  2 for radial functions.
  Species H                   : Default cutoff onset for free atom density etc. : 0.40000000E+01 AA.
  Species H                   : Basic radial grid will be enhanced according to radial_multiplier =   2, to contain    49 grid points.
 
  Reading configuration options for species C                   .
  | Found nuclear charge :   6.0000
  | Found atomic mass :    12.0107000000000      amu
  | Found l_max for Hartree potential  :   6
  | Found cutoff potl. onset [A], width [A], scale factor :    4.00000    2.00000    1.00000
  | Threshold for basis-dependent cutoff potential is   0.100000E-03
  | Found data for basic radial integration grid :    34 points, outermost radius =    7.000 A
  | Found multiplier for basic radial grid :   2
  | Found angular grid specification: user-specified.
  | Specified grid contains     6 separate shells.
  | Check grid settings after all constraints further below.
  | Found free-atom valence shell :  2 s   2.000
  | Found free-atom valence shell :  2 p   2.000
  | No ionic wave fns used. Skipping ion_occ.
  | No ionic wave fns used. Skipping ion_occ.
  | Found hydrogenic basis function :  2 p   1.700
  | Found hydrogenic basis function :  3 d   6.000
  | Found hydrogenic basis function :  2 s   4.900
  | Found hydrogenic basis function :  4 f   9.800
  | Found hydrogenic basis function :  3 p   5.200
  | Found hydrogenic basis function :  3 s   4.300
  | Found hydrogenic basis function :  5 g  14.400
  | Found hydrogenic basis function :  3 d   6.200
  Species C                   : Missing cutoff potential type.
  Defaulting to exp(1/x)/(1-x)^2 type cutoff potential.
  Species C : No 'logarithmic' tag. Using default grid for free atom:
  | Default logarithmic grid data [bohr] : 0.1000E-03 0.1000E+03 0.1012E+01
  Species C : On-site basis accuracy parameter (for Gram-Schmidt orthonormalisation) not specified.
  Using default value basis_acc =  0.1000000E-03.
  Species C                   : Using default innermost maximum threshold i_radial=  2 for radial functions.
  Species C                   : Default cutoff onset for free atom density etc. : 0.40000000E+01 AA.
  Species C                   : Basic radial grid will be enhanced according to radial_multiplier =   2, to contain    69 grid points.
 
  Finished reading input file 'control.in'. Consistency checks are next.
 
  MPI_IN_PLACE appears to work with this MPI implementation.
  | Keeping use_mpi_in_place .true. (see manual).
  Target number of points in a grid batch is not set. Defaulting to  100
  Method for grid partitioning is not set. Defaulting to parallel hash+maxmin partitioning.
  Batch size limit is not set. Defaulting to    200
  By default, will store active basis functions for each batch.
  If in need of memory, prune_basis_once .false. can be used to disable this option.
  communication_type for Hartree potential was not specified.
  Defaulting to calc_hartree .
  Pulay mixer: Number of initial linear mixing iterations not set.
  Defaulting to    0 iterations.
  Work space size for distributed Hartree potential not set.
  Defaulting to   0.200000E+03 MB.
  Algorithm-dependent basis array size parameters:
  | n_max_pulay                         :        5
  Presetting      1001 iterations before the initial mixing cycle
  is restarted anyway using the sc_init_iter criterion / keyword.
  Presetting a factor      1.000 between actual scf density residual
  and density convergence criterion sc_accuracy_rho below which sc_init_iter
  takes no effect.
  Calculation of forces was not defined in control.in. No forces will be calculated.
  Geometry relaxation not requested: no relaxation will be performed.
  No accuracy limit for integral partition fn. given. Defaulting to  0.1000E-14.
  No threshold value for u(r) in integrations given. Defaulting to  0.1000E-05.
  No accuracy for occupation numbers given. Defaulting to  0.1000E-12.
  No threshold value for occupation numbers given. Defaulting to  0.0000E+00.
  No accuracy for fermi level given. Defaulting to  0.1000E-19.
  Maximum # of iterations to find E_F not set. Defaulting to  200.
  Will not use alltoall communication since running on < 1024 CPUs.
  partition_type (choice of integration weights) for integrals was not specified.
  | Using a version of the partition function of Stratmann and coworkers ('stratmann_sparse').
  | At each grid point, the set of atoms used to build the partition table is smoothly restricted to
  | only those atoms whose free-atom density would be non-zero at that grid point.
  Partitioning for Hartree potential was not defined. Using partition_type for integrals.
  | Adjusted default value of keyword multip_moments_threshold to:       0.10000000E-11
  | This value may affect high angular momentum components of the Hartree potential in periodic systems.
  No q(lm)/r^(l+1) cutoff set for long-range Hartree potential.
  | Using default value of  0.100000E-09 .
  | Verify using the multipole_threshold keyword.
  Defaulting to new monopole extrapolation.
  Density update method: automatic selection selected.
 * Warning: use_local_index and/or load_balancing needs packed_matrix_format = index
 * Changing the default setting to packed_matrix_format = index
------------------------------------------------------------


------------------------------------------------------------
          Reading geometry description geometry.in.
------------------------------------------------------------
  Input structure read successfully.
  The structure contains       96 atoms,  and a total of        386.000 electrons.

  Input geometry:
  | No unit cell requested.
  | Atomic structure:
  |       Atom                x [A]            y [A]            z [A]
  |    1: Species H             4.00510500       20.58507600       36.71665100
  |    2: Species C             4.31990700       19.70699400       36.15405600
  |    3: Species C             3.42224000       18.66271000       35.92971200
  |    4: Species C             5.61204500       19.62911700       35.65138100
  |    5: Species H             2.41059100       18.72970100       36.32470100
  |    6: Species C             3.83071000       17.55397300       35.20602300
  |    7: Species C             5.99226700       18.50132300       34.95852100
  |    8: Species C             6.57207800       20.75051400       35.91335700
  |    9: Species H             3.12304300       16.74308400       35.03132400
  |   10: Species C             5.09593100       17.45976300       34.76167800
  |   11: Species H             7.00713300       18.41781800       34.57134800
  |   12: Species C             6.99616200       21.59464200       34.86603400
  |   13: Species C             7.04520300       20.97673400       37.22945700
  |   14: Species H             5.43057100       16.57208800       34.22614800
  |   15: Species C             6.50865700       21.43281700       33.54703800
  |   16: Species C             7.88923300       22.68783900       35.13944400
  |   17: Species C             6.65878400       20.13643600       38.30399100
  |   18: Species C             7.93827300       22.06993200       37.50286700
  |   19: Species H             5.81165000       20.62151600       33.35627400
  |   20: Species C             6.88819200       22.26261200       32.50318900
  |   21: Species C             8.27565200       23.52813700       34.06491000
  |   22: Species C             8.36235800       22.91405900       36.45554400
  |   23: Species H             5.99446700       19.30306600       38.09556800
  |   24: Species C             7.09887900       20.34331300       39.60518400
  |   25: Species C             8.42577800       22.23175600       38.82186300
  |   26: Species C             6.36104400       22.09061800       31.16450900
  |   27: Species C             7.83555700       23.32126000       32.76371700
  |   28: Species H             8.93996900       24.36150800       34.27333300
  |   29: Species C             9.32239100       24.03545600       36.71752000
  |   30: Species C             6.64743900       19.50781200       40.69969100
  |   31: Species C             8.04624300       21.40196200       39.86571200
  |   32: Species H             9.12278600       23.04305700       39.01262700
  |   33: Species C             5.34986200       21.05223600       30.83219100
  |   34: Species C             6.81413800       22.91373800       30.17855500
  |   35: Species C             8.28699700       24.15676100       31.66921000
  |   36: Species C             8.94216900       25.16325100       37.41038000
  |   37: Species C            10.61452900       23.95758000       36.21484500
  |   38: Species C             5.63777000       18.43071600       40.49734700
  |   39: Species C             7.16853800       19.73530900       41.94241000
  |   40: Species C             8.57339100       21.57395600       41.20439200
  |   41: Species C             4.15506500       20.93638200       31.53113000
  |   42: Species C             5.55733700       20.20991500       29.74361800
  |   43: Species H             6.43296700       22.80609500       29.16365400
  |   44: Species C             7.76589800       23.92926400       30.42649100
  |   45: Species C             9.29666600       25.23385700       31.87155300
  |   46: Species H             7.92730200       25.24675600       37.79755300
  |   47: Species C             9.83850500       26.20481100       37.60722300
  |   48: Species H            10.92933100       23.07949800       35.65225000
  |   49: Species C            11.51219600       25.00186400       36.43918900
  |   50: Species C             4.40353400       18.67014700       39.92737000
  |   51: Species C             5.91198600       17.13037100       40.94342900
  |   52: Species H             6.84212400       19.12556500       42.78304700
  |   53: Species C             8.12029800       20.75083500       42.19034600
  |   54: Species C             9.58457300       22.61233800       41.53671000
  |   55: Species C             3.20837200       19.99223500       31.15625900
  |   56: Species H             3.93704700       21.60303700       32.36409600
  |   57: Species C             4.59705000       19.27333500       29.37598400
  |   58: Species H             6.48176800       20.28257300       29.17147000
  |   59: Species H             8.09231200       24.53900900       29.58585400
  |   60: Species C             9.02245000       26.53420300       31.42547200
  |   61: Species C            10.53090200       24.99442700       32.44153100
  |   62: Species H             9.50386500       27.09248600       38.14275300
  |   63: Species C            11.10372600       26.11060100       37.16287800
  |   64: Species H            12.52384500       24.93487200       36.04420000
  |   65: Species C             3.46654600       17.65274600       39.76526400
  |   66: Species H             4.14440800       19.67670900       39.60084200
  |   67: Species C             4.97286200       16.11403700       40.78132300
  |   68: Species H             6.88098400       16.90800100       41.39139300
  |   69: Species H             8.50146800       20.85847900       43.20524700
  |   70: Species C             9.37709800       23.45465900       42.62528300
  |   71: Species C            10.77937100       22.72819200       40.83777100
  |   72: Species H             2.27409100       19.92960000       31.71407900
  |   73: Species C             3.43615200       19.16406100       30.08954200
  |   74: Species H             4.78513600       18.64363900       28.50755700
  |   75: Species H             8.05345200       26.75657300       30.97750800
  |   76: Species C             9.96157400       27.55053700       31.58757800
  |   77: Species H            10.79002800       23.98786400       32.76805900
  |   78: Species C            11.46789000       26.01182700       32.60363700
  |   79: Species H            11.81139300       26.92149000       37.33757700
  |   80: Species H             2.50472700       17.87953600       39.30818200
  |   81: Species C             3.76720000       16.38385300       40.18355600
  |   82: Species H             5.21714800       15.10373100       41.11031200
  |   83: Species H             8.45266800       23.38200100       43.19743100
  |   84: Species C            10.33738600       24.39123900       42.99291700
  |   85: Species H            10.99738900       22.06153700       40.00480500
  |   86: Species C            11.72606400       23.67233900       41.21264200
  |   87: Species H             2.67779600       18.43781000       29.79485500
  |   88: Species H             9.71728800       28.56084200       31.25858900
  |   89: Species C            11.16723600       27.28072000       32.18534500
  |   90: Species H            12.42970900       25.78503800       33.06071900
  |   91: Species H             3.03769000       15.58530000       40.03867300
  |   92: Species H            10.14930000       25.02093500       43.86134300
  |   93: Species C            11.49828300       24.50051300       42.27935900
  |   94: Species H            12.66034500       23.73497300       40.65482200
  |   95: Species H            11.89674500       28.07927300       32.33022800
  |   96: Species H            12.25664000       25.22676300       42.57404500
  |

  | The smallest distance between any two atoms is         1.08593866 AA.
  |
  | The first atom of this pair is atom number                     17 .
  | The second atom of this pair is atom number                    23 .

  Number of empty states per atom not set in control.in - providing a guess from actual geometry.
  | Total number of empty states used during s.c.f. cycle:      231
  If you use a very high smearing, use empty_states (per atom!) in control.in to increase this value.

  Structure-dependent array size parameters: 
  | Maximum number of distinct radial functions  :       18
  | Maximum number of basis functions            :     2832
  | Number of Kohn-Sham states (occupied + empty):      424
------------------------------------------------------------

------------------------------------------------------------
          Preparing all fixed parts of the calculation.
------------------------------------------------------------
  Determining machine precision:
    2.225073858507201E-308
  Setting up grids for atomic and cluster calculations.

  Creating wave function, potential, and density for free atoms.

  Species: H

  List of occupied orbitals and eigenvalues:
    n    l              occ      energy [Ha]    energy [eV]
    1    0           1.0000        -0.238386        -6.4868


  Species: C

  List of occupied orbitals and eigenvalues:
    n    l              occ      energy [Ha]    energy [eV]
    1    0           2.0000       -10.049212      -273.4530
    2    0           2.0000        -0.504761       -13.7352
    2    1           2.0000        -0.193631        -5.2690

  Creating fixed part of basis set: Ionic, confined, hydrogenic.
 
  H                    hydrogenic:
 
  List of hydrogenic basis orbitals: 
    n    l      effective z      eigenvalue [eV]  inner max. [A]     outer max. [A]     outer radius [A]   
    2    0         2.100000       -14.9965           0.193243           1.317208           5.373006
    2    1         3.500000       -41.6672           0.602369           0.602369           4.056063
    1    0         0.850000        -9.8292           0.624871           0.624871           5.373006
    2    1         3.700000       -46.5653           0.573622           0.573622           3.910002
    2    0         1.200000        -4.5995           0.334980           2.228188           5.505995
    3    2         7.000000       -74.0753           0.680699           0.680699           3.769201
 
 
  C                    hydrogenic:
 
  List of hydrogenic basis orbitals: 
    n    l      effective z      eigenvalue [eV]  inner max. [A]     outer max. [A]     outer radius [A]   
    2    1         1.700000        -9.8152           1.245706           1.245706           5.401630
    3    2         6.000000       -54.4226           0.792453           0.792453           4.178599
    2    0         4.900000       -81.6681           0.082559           0.562749           3.353238
    4    3         9.800000       -81.6681           0.863254           0.863254           4.028125
    3    1         5.200000       -40.8774           0.305389           1.215618           4.898362
    3    0         4.300000       -27.9508           0.091041           1.610311           5.401630
    5    4        14.400000      -112.8510           0.917666           0.917666           3.883070
    3    2         6.200000       -58.1113           0.763917           0.763917           4.077671
 

  Adding cutoff potential to free-atom effective potential.
  Creating atomic-like basis functions for current effective potential.

  Species H                   :

  List of atomic basis orbitals and eigenvalues:
    n    l      energy [Ha]    energy [eV]    outer radius [A]
    1    0        -0.238386        -6.4868       5.373006


  Species C                   :

  List of atomic basis orbitals and eigenvalues:
    n    l      energy [Ha]    energy [eV]    outer radius [A]
    1    0       -10.049212      -273.4530       1.934409
    2    0        -0.504761       -13.7352       5.271162
    2    1        -0.193631        -5.2690       5.401630

  Assembling full basis from fixed parts.
  | Species H :   atomic orbital   1 s accepted.
  | Species H :    hydro orbital   2 s accepted.
  | Species H :    hydro orbital   1 s accepted.
  | Species H :    hydro orbital   2 s accepted.
  | Species H :    hydro orbital   2 p accepted.
  | Species H :    hydro orbital   2 p accepted.
  | Species H :    hydro orbital   3 d accepted.
  | Species C :   atomic orbital   1 s accepted.
  | Species C :    hydro orbital   2 s accepted.
  | Species C :   atomic orbital   2 s accepted.
  | Species C :    hydro orbital   3 s accepted.
  | Species C :    hydro orbital   3 p accepted.
  | Species C :   atomic orbital   2 p accepted.
  | Species C :    hydro orbital   2 p accepted.
  | Species C :    hydro orbital   3 d accepted.
  | Species C :    hydro orbital   3 d accepted.
  | Species C :    hydro orbital   4 f accepted.
  | Species C :    hydro orbital   5 g accepted.
 
  Basis size parameters after reduction:
  | Total number of radial functions:       18
  | Total number of basis functions :     2832
 
  Per-task memory consumption for arrays in subroutine allocate_ext:
  |           4.478776MB.
  Testing on-site integration grid accuracy.
  |  Species  Function  <phi|h_atom|phi> (log., in eV)  <phi|h_atom|phi> (rad., in eV)
           1        1                 -6.4870767962                 -6.4871688290
           1        2                 13.5032046589                 13.5028982997
           1        3                 32.8195184817                 32.8119941656
           1        4                 33.8513856511                 33.7670005767 ***
           1        5                 28.8544614965                 28.8544615203
           1        6                 59.6326952547                 59.6327656460
           1        7                 60.2719308513                 60.2719305949
           2        8               -273.4529726040               -273.4529710464
           2        9                -10.7721037319                -10.7721022101
           2       10                 17.6044132601                 17.6044162063
           2       11                 53.7706460658                 53.7706913770
           2       12                 15.0973290362                 15.0973256030
           2       13                  3.8545134692                  3.8545724687
           2       14                 12.1156992592                 12.1182024431
           2       15                 29.4352039302                 29.4352041816
           2       16                 54.8741144708                 54.8740268729
           2       17                 59.3556032049                 59.3556031382
           2       18                 93.4551837154                 93.4551838009
 * Note: Onsite integrals marked "***" above are less accurate than
 * onsite_accuracy_threshold =    0.03000 eV. Usually, this is harmless.
 * When in doubt, tighten the "radial" and/or "radial_multiplier" flags to check.

  Preparing densities etc. for the partition functions (integrals / Hartree potential).

  Preparations completed.
  max(cpu_time)          :      0.190 s.
  Wall clock time (cpu1) :      0.202 s.
------------------------------------------------------------

------------------------------------------------------------
          Begin self-consistency loop: Initialization.

          Date     :  20210620, Time     :  175120.563
------------------------------------------------------------

  Initializing index lists of integration centers etc. from given atomic structure:
  | Number of centers in hartree potential         :        96
  | Number of centers in hartree multipole         :        96
  | Number of centers in electron density summation:        96
  | Number of centers in basis integrals           :        96
  | Number of centers in integrals                 :        96
  | Number of centers in hamiltonian               :        96
  * Using 56 tasks for Scalapack Eigenvalue solver.
  Detailed listing of tasks and assigned k-points:
  (for non-periodic systems, the "k-point" denotes an internal label only)
   Task     0 k-point     1 on d024
   Task     1 k-point     1 on d024
   Task     2 k-point     1 on d024
   Task     3 k-point     1 on d024
   Task     4 k-point     1 on d024
   Task     5 k-point     1 on d024
   Task     6 k-point     1 on d024
   Task     7 k-point     1 on d024
   Task     8 k-point     1 on d024
   Task     9 k-point     1 on d024
   Task    10 k-point     1 on d024
   Task    11 k-point     1 on d024
   Task    12 k-point     1 on d024
   Task    13 k-point     1 on d024
   Task    14 k-point     1 on d024
   Task    15 k-point     1 on d024
   Task    16 k-point     1 on d024
   Task    17 k-point     1 on d024
   Task    18 k-point     1 on d024
   Task    19 k-point     1 on d024
   Task    20 k-point     1 on d024
   Task    21 k-point     1 on d024
   Task    22 k-point     1 on d024
   Task    23 k-point     1 on d024
   Task    24 k-point     1 on d024
   Task    25 k-point     1 on d024
   Task    26 k-point     1 on d024
   Task    27 k-point     1 on d024
   Task    28 k-point     1 on d024
   Task    29 k-point     1 on d024
   Task    30 k-point     1 on d024
   Task    31 k-point     1 on d024
   Task    32 k-point     1 on d024
   Task    33 k-point     1 on d024
   Task    34 k-point     1 on d024
   Task    35 k-point     1 on d024
   Task    36 k-point     1 on d024
   Task    37 k-point     1 on d024
   Task    38 k-point     1 on d024
   Task    39 k-point     1 on d024
   Task    40 k-point     1 on d024
   Task    41 k-point     1 on d024
   Task    42 k-point     1 on d024
   Task    43 k-point     1 on d024
   Task    44 k-point     1 on d024
   Task    45 k-point     1 on d024
   Task    46 k-point     1 on d024
   Task    47 k-point     1 on d024
   Task    48 k-point     1 on d024
   Task    49 k-point     1 on d024
   Task    50 k-point     1 on d024
   Task    51 k-point     1 on d024
   Task    52 k-point     1 on d024
   Task    53 k-point     1 on d024
   Task    54 k-point     1 on d024
   Task    55 k-point     1 on d024
  Tasks:    56 split into      8 X      7 BLACS grid
  Calculating block size based on n_basis =         2832 max_nprow =            8 max_npcol =            7
  ScaLAPACK block size set to:           16
  Allocating        1.225 MB for ovlp
  Allocating        1.225 MB for ham
  Allocating        1.225 MB for eigenvec
  Required Scalapack workspace - INTEGER:            1 REAL:             1
  Partitioning the integration grid into batches with parallel hashing+maxmin method.
  | Number of batches:    14605
  | Maximal batch size:     200
  | Minimal batch size:       7
  | Average batch size:     109.389
  | Standard deviation of batch sizes:      34.197

  Integration load balanced across     56 MPI tasks.
  Work distribution over tasks is as follows:
  Task      0 has      28724 integration points.
  Task      1 has      28590 integration points.
  Task      2 has      28452 integration points.
  Task      3 has      28587 integration points.
  Task      4 has      28441 integration points.
  Task      5 has      28515 integration points.
  Task      6 has      28495 integration points.
  Task      7 has      28682 integration points.
  Task      8 has      28602 integration points.
  Task      9 has      28347 integration points.
  Task     10 has      28563 integration points.
  Task     11 has      28490 integration points.
  Task     12 has      28592 integration points.
  Task     13 has      28446 integration points.
  Task     14 has      28663 integration points.
  Task     15 has      28569 integration points.
  Task     16 has      28436 integration points.
  Task     17 has      28597 integration points.
  Task     18 has      28454 integration points.
  Task     19 has      28590 integration points.
  Task     20 has      28441 integration points.
  Task     21 has      28642 integration points.
  Task     22 has      28547 integration points.
  Task     23 has      28372 integration points.
  Task     24 has      28641 integration points.
  Task     25 has      28476 integration points.
  Task     26 has      28551 integration points.
  Task     27 has      28367 integration points.
  Task     28 has      28617 integration points.
  Task     29 has      28553 integration points.
  Task     30 has      28530 integration points.
  Task     31 has      28674 integration points.
  Task     32 has      28587 integration points.
  Task     33 has      28466 integration points.
  Task     34 has      28433 integration points.
  Task     35 has      28587 integration points.
  Task     36 has      28526 integration points.
  Task     37 has      28502 integration points.
  Task     38 has      28637 integration points.
  Task     39 has      28472 integration points.
  Task     40 has      28483 integration points.
  Task     41 has      28408 integration points.
  Task     42 has      28613 integration points.
  Task     43 has      28589 integration points.
  Task     44 has      28412 integration points.
  Task     45 has      28596 integration points.
  Task     46 has      28439 integration points.
  Task     47 has      28532 integration points.
  Task     48 has      28477 integration points.
  Task     49 has      28576 integration points.
  Task     50 has      28516 integration points.
  Task     51 has      28512 integration points.
  Task     52 has      28637 integration points.
  Task     53 has      28383 integration points.
  Task     54 has      28584 integration points.
  Task     55 has      28411 integration points.
  Initializing partition tables, free-atom densities, potentials, etc. across the integration grid (initialize_grid_storage).
  | initialize_grid_storage: Actual outermost partition radius vs. multipole_radius_free
  | (-- VB: in principle, multipole_radius_free should be larger, hence this output)
  | Species        1: Confinement radius =              6.000000000000000 AA, multipole_radius_free =              6.071692442739658 AA.
  | Species        1: outer_partition_radius set to              6.071692442739658 AA .
  | Species        2: Confinement radius =              6.000000000000000 AA, multipole_radius_free =              6.029870734432609 AA.
  | Species        2: outer_partition_radius set to              6.029870734432609 AA .
  | The sparse table of interatomic distances needs    108.1480 kbyte instead of    73.7280 kbyte of memory.
  | Using the partition_type stratmann_smoother will reduce your memory usage.
  | Net number of integration points:  1597624
  | of which are non-zero points    :  1248123
  Renormalizing the initial density to the exact electron count on the 3D integration grid.
  | Initial density: Formal number of electrons (from input files) :     386.0000000000
  | Integrated number of electrons on 3D grid     :     385.9999853797
  | Charge integration error                      :      -0.0000146203
  | Normalization factor for density and gradient :       1.0000000379
  Obtaining max. number of non-zero basis functions in each batch (get_n_compute_maxes).
  | Maximal number of non-zero basis functions:     1104
  Selecting the method for density update.
  Loop over occupied states selected for charge density update.
  Hamiltonian matrix size:
  | Size of matrix non-packed:               4011528
  | Size of matrix packed:         2689074
  Allocating        9.606 MB for KS_eigenvector
  use_local_index: Max. local matrix size =      1541990
  Task:     0 matrix size:     263603
  Task:     1 matrix size:     291309
  Task:     2 matrix size:     429393
  Task:     3 matrix size:     516222
  Task:     4 matrix size:     686910
  Task:     5 matrix size:     752783
  Task:     6 matrix size:    1076111
  Task:     7 matrix size:     678756
  Task:     8 matrix size:     773442
  Task:     9 matrix size:     922741
  Task:    10 matrix size:     973614
  Task:    11 matrix size:    1204892
  Task:    12 matrix size:    1306834
  Task:    13 matrix size:    1541990
  Task:    14 matrix size:     497356
  Task:    15 matrix size:     538049
  Task:    16 matrix size:     405246
  Task:    17 matrix size:    1378857
  Task:    18 matrix size:    1393174
  Task:    19 matrix size:    1337022
  Task:    20 matrix size:     962286
  Task:    21 matrix size:     576679
  Task:    22 matrix size:     302781
  Task:    23 matrix size:     238395
  Task:    24 matrix size:    1086183
  Task:    25 matrix size:     784163
  Task:    26 matrix size:     668061
  Task:    27 matrix size:     387409
  Task:    28 matrix size:     387538
  Task:    29 matrix size:     664257
  Task:    30 matrix size:     945259
  Task:    31 matrix size:     173166
  Task:    32 matrix size:     373467
  Task:    33 matrix size:     286952
  Task:    34 matrix size:     542562
  Task:    35 matrix size:    1069460
  Task:    36 matrix size:     861970
  Task:    37 matrix size:     884028
  Task:    38 matrix size:    1313843
  Task:    39 matrix size:    1397174
  Task:    40 matrix size:    1059379
  Task:    41 matrix size:    1026166
  Task:    42 matrix size:    1475125
  Task:    43 matrix size:    1325155
  Task:    44 matrix size:    1154861
  Task:    45 matrix size:     577801
  Task:    46 matrix size:     627812
  Task:    47 matrix size:     649032
  Task:    48 matrix size:     327073
  Task:    49 matrix size:     923315
  Task:    50 matrix size:     753423
  Task:    51 matrix size:     488670
  Task:    52 matrix size:     787684
  Task:    53 matrix size:     212518
  Task:    54 matrix size:     451858
  Task:    55 matrix size:     216764
  Integrating Hamiltonian matrix: batch-based integration.
  Time summed over all CPUs for integration: real work      364.534 s, elapsed      708.154 s
  Time get_set_sparse_local_matrix_scalapack:     0.032108 s
  Start compute_balanced_batch_distribution
  Done load balancing, time needed:      0.018 s
  Integrating overlap matrix with loadbalancing
  Time summed over all CPUs for integration: real work      108.860 s, elapsed      122.368 s
  Time get_set_full_local_matrix_scalapack:     0.039720 s

  Updating Kohn-Sham eigenvalues and eigenvectors using ELSI and the ELPA eigensolver.
  Overlap matrix is not singular
  | Lowest and highest eigenvalues :  0.13E+02,  0.84E-04
  Finished singularity check of overlap matrix
  | Time :     0.308 s
  Finished Cholesky decomposition
  | Time :     0.069 s
  Finished transformation to standard eigenproblem
  | Time :     0.099 s
  Starting ELPA eigensolver
  Finished solving standard eigenproblem
  | Time :     0.346 s
  Finished back-transformation of eigenvectors
  | Time :     0.018 s

  Obtaining occupation numbers and chemical potential using ELSI.
  | Chemical potential (Fermi level):    -8.02324699 eV
  Writing Kohn-Sham eigenvalues.

  State    Occupation    Eigenvalue [Ha]    Eigenvalue [eV]
      1       2.00000         -10.179537         -276.99930
      2       2.00000         -10.179537         -276.99930
      3       2.00000         -10.178883         -276.98149
      4       2.00000         -10.178883         -276.98149
      5       2.00000         -10.177821         -276.95260
      6       2.00000         -10.177821         -276.95259
      7       2.00000         -10.176844         -276.92600
      8       2.00000         -10.176843         -276.92600
      9       2.00000         -10.174650         -276.86633
     10       2.00000         -10.174650         -276.86632
     11       2.00000         -10.174544         -276.86344
     12       2.00000         -10.174544         -276.86344
     13       2.00000         -10.174029         -276.84941
     14       2.00000         -10.174029         -276.84941
     15       2.00000         -10.173773         -276.84244
     16       2.00000         -10.173772         -276.84243
     17       2.00000         -10.173130         -276.82495
     18       2.00000         -10.173130         -276.82494
     19       2.00000         -10.172603         -276.81060
     20       2.00000         -10.172603         -276.81060
     21       2.00000         -10.172183         -276.79917
     22       2.00000         -10.172183         -276.79917
     23       2.00000         -10.171942         -276.79262
     24       2.00000         -10.171942         -276.79262
     25       2.00000         -10.171362         -276.77684
     26       2.00000         -10.171362         -276.77684
     27       2.00000         -10.171288         -276.77482
     28       2.00000         -10.171288         -276.77482
     29       2.00000         -10.170966         -276.76606
     30       2.00000         -10.170966         -276.76606
     31       2.00000         -10.170810         -276.76181
     32       2.00000         -10.170810         -276.76181
     33       2.00000         -10.168916         -276.71029
     34       2.00000         -10.168916         -276.71028
     35       2.00000         -10.168683         -276.70395
     36       2.00000         -10.168683         -276.70395
     37       2.00000         -10.168041         -276.68647
     38       2.00000         -10.168041         -276.68647
     39       2.00000         -10.167976         -276.68472
     40       2.00000         -10.167976         -276.68471
     41       2.00000         -10.166345         -276.64031
     42       2.00000         -10.166344         -276.64031
     43       2.00000         -10.165818         -276.62598
     44       2.00000         -10.165818         -276.62597
     45       2.00000         -10.165207         -276.60936
     46       2.00000         -10.165205         -276.60931
     47       2.00000         -10.164053         -276.57795
     48       2.00000         -10.164050         -276.57788
     49       2.00000         -10.163700         -276.56834
     50       2.00000         -10.163700         -276.56834
     51       2.00000         -10.163225         -276.55542
     52       2.00000         -10.163225         -276.55542
     53       2.00000         -10.162616         -276.53885
     54       2.00000         -10.162616         -276.53885
     55       2.00000         -10.161447         -276.50705
     56       2.00000         -10.161447         -276.50705
     57       2.00000         -10.158217         -276.41914
     58       2.00000         -10.158216         -276.41913
     59       2.00000          -1.018751          -27.72163
     60       2.00000          -1.011057          -27.51226
     61       2.00000          -1.007818          -27.42413
     62       2.00000          -1.007223          -27.40794
     63       2.00000          -1.003101          -27.29577
     64       2.00000          -1.003098          -27.29567
     65       2.00000          -0.998101          -27.15972
     66       2.00000          -0.992987          -27.02056
     67       2.00000          -0.979557          -26.65510
     68       2.00000          -0.955596          -26.00309
     69       2.00000          -0.938624          -25.54125
     70       2.00000          -0.931686          -25.35246
     71       2.00000          -0.926855          -25.22100
     72       2.00000          -0.922712          -25.10828
     73       2.00000          -0.896644          -24.39893
     74       2.00000          -0.895551          -24.36918
     75       2.00000          -0.895471          -24.36701
     76       2.00000          -0.889185          -24.19595
     77       2.00000          -0.888370          -24.17377
     78       2.00000          -0.887743          -24.15672
     79       2.00000          -0.886971          -24.13572
     80       2.00000          -0.885955          -24.10807
     81       2.00000          -0.885523          -24.09632
     82       2.00000          -0.884053          -24.05631
     83       2.00000          -0.882892          -24.02472
     84       2.00000          -0.872433          -23.74012
     85       2.00000          -0.861228          -23.43522
     86       2.00000          -0.853527          -23.22566
     87       2.00000          -0.829696          -22.57717
     88       2.00000          -0.807088          -21.96199
     89       2.00000          -0.778972          -21.19690
     90       2.00000          -0.776531          -21.13049
     91       2.00000          -0.772303          -21.01544
     92       2.00000          -0.768754          -20.91886
     93       2.00000          -0.756356          -20.58148
     94       2.00000          -0.754613          -20.53406
     95       2.00000          -0.754312          -20.52587
     96       2.00000          -0.752795          -20.48460
     97       2.00000          -0.752696          -20.48189
     98       2.00000          -0.748758          -20.37474
     99       2.00000          -0.748677          -20.37255
    100       2.00000          -0.744350          -20.25479
    101       2.00000          -0.743610          -20.23465
    102       2.00000          -0.743600          -20.23439
    103       2.00000          -0.714836          -19.45169
    104       2.00000          -0.713763          -19.42249
    105       2.00000          -0.712022          -19.37510
    106       2.00000          -0.711237          -19.35374
    107       2.00000          -0.677521          -18.43628
    108       2.00000          -0.677391          -18.43274
    109       2.00000          -0.668556          -18.19234
    110       2.00000          -0.662555          -18.02903
    111       2.00000          -0.661816          -18.00893
    112       2.00000          -0.661255          -17.99367
    113       2.00000          -0.655722          -17.84310
    114       2.00000          -0.651141          -17.71846
    115       2.00000          -0.641373          -17.45266
    116       2.00000          -0.638969          -17.38722
    117       2.00000          -0.636167          -17.31099
    118       2.00000          -0.634670          -17.27024
    119       2.00000          -0.633032          -17.22569
    120       2.00000          -0.631918          -17.19536
    121       2.00000          -0.631017          -17.17085
    122       2.00000          -0.625498          -17.02066
    123       2.00000          -0.622138          -16.92923
    124       2.00000          -0.612034          -16.65428
    125       2.00000          -0.609463          -16.58433
    126       2.00000          -0.597220          -16.25118
    127       2.00000          -0.592067          -16.11097
    128       2.00000          -0.590482          -16.06782
    129       2.00000          -0.585632          -15.93587
    130       2.00000          -0.580013          -15.78294
    131       2.00000          -0.579515          -15.76940
    132       2.00000          -0.579232          -15.76171
    133       2.00000          -0.578926          -15.75337
    134       2.00000          -0.577005          -15.70109
    135       2.00000          -0.574722          -15.63897
    136       2.00000          -0.572108          -15.56785
    137       2.00000          -0.570950          -15.53634
    138       2.00000          -0.569522          -15.49748
    139       2.00000          -0.567226          -15.43501
    140       2.00000          -0.566679          -15.42011
    141       2.00000          -0.565939          -15.39998
    142       2.00000          -0.564953          -15.37316
    143       2.00000          -0.564923          -15.37235
    144       2.00000          -0.564314          -15.35577
    145       2.00000          -0.563011          -15.32032
    146       2.00000          -0.554881          -15.09909
    147       2.00000          -0.542420          -14.75999
    148       2.00000          -0.539713          -14.68635
    149       2.00000          -0.529849          -14.41793
    150       2.00000          -0.521480          -14.19019
    151       2.00000          -0.519395          -14.13345
    152       2.00000          -0.519306          -14.13105
    153       2.00000          -0.517554          -14.08337
    154       2.00000          -0.511866          -13.92859
    155       2.00000          -0.510048          -13.87912
    156       2.00000          -0.507901          -13.82069
    157       2.00000          -0.507479          -13.80921
    158       2.00000          -0.507076          -13.79823
    159       2.00000          -0.506235          -13.77536
    160       2.00000          -0.505914          -13.76661
    161       2.00000          -0.505905          -13.76638
    162       2.00000          -0.504974          -13.74105
    163       2.00000          -0.501341          -13.64217
    164       2.00000          -0.500221          -13.61171
    165       2.00000          -0.500050          -13.60705
    166       2.00000          -0.498811          -13.57334
    167       2.00000          -0.498546          -13.56613
    168       2.00000          -0.497156          -13.52831
    169       2.00000          -0.496245          -13.50352
    170       2.00000          -0.493828          -13.43776
    171       2.00000          -0.486729          -13.24457
    172       2.00000          -0.484722          -13.18997
    173       2.00000          -0.476903          -12.97718
    174       2.00000          -0.462195          -12.57696
    175       2.00000          -0.443699          -12.07367
    176       2.00000          -0.435199          -11.84236
    177       2.00000          -0.424816          -11.55984
    178       2.00000          -0.422279          -11.49079
    179       2.00000          -0.410557          -11.17181
    180       2.00000          -0.409459          -11.14195
    181       2.00000          -0.407512          -11.08896
    182       2.00000          -0.406751          -11.06827
    183       2.00000          -0.406572          -11.06339
    184       2.00000          -0.404962          -11.01959
    185       2.00000          -0.404306          -11.00173
    186       2.00000          -0.403791          -10.98771
    187       2.00000          -0.402126          -10.94241
    188       2.00000          -0.401841          -10.93465
    189       2.00000          -0.401474          -10.92467
    190       2.00000          -0.390007          -10.61263
    191       2.00000          -0.383776          -10.44307
    192       2.00000          -0.363163           -9.88217
    193       2.00000          -0.328669           -8.94353
    194       0.00000          -0.284583           -7.74389
    195       0.00000          -0.247709           -6.74050
    196       0.00000          -0.228280           -6.21183
    197       0.00000          -0.221760           -6.03439
    198       0.00000          -0.216940           -5.90324
    199       0.00000          -0.214480           -5.83631
    200       0.00000          -0.213962           -5.82221
    201       0.00000          -0.212774           -5.78987
    202       0.00000          -0.212062           -5.77051
    203       0.00000          -0.211492           -5.75499
    204       0.00000          -0.209803           -5.70903
    205       0.00000          -0.208938           -5.68550
    206       0.00000          -0.208069           -5.66184
    207       0.00000          -0.207419           -5.64416
    208       0.00000          -0.207059           -5.63435
    209       0.00000          -0.183144           -4.98359
    210       0.00000          -0.179439           -4.88279
    211       0.00000          -0.165261           -4.49697
    212       0.00000          -0.158216           -4.30528
    213       0.00000          -0.125971           -3.42784
    214       0.00000          -0.085346           -2.32239
    215       0.00000          -0.083348           -2.26800
    216       0.00000          -0.081310           -2.21256
    217       0.00000          -0.074379           -2.02396
    218       0.00000          -0.073688           -2.00516
    219       0.00000          -0.072400           -1.97011
    220       0.00000          -0.071324           -1.94082
    221       0.00000          -0.068823           -1.87276
    222       0.00000          -0.068545           -1.86520
    223       0.00000          -0.066936           -1.82142
    224       0.00000          -0.066739           -1.81605
    225       0.00000          -0.065267           -1.77602
    226       0.00000          -0.063009           -1.71456
    227       0.00000          -0.056518           -1.53792
    228       0.00000          -0.055005           -1.49676
    229       0.00000          -0.052178           -1.41982
    230       0.00000          -0.047548           -1.29384
    231       0.00000          -0.046669           -1.26993
    232       0.00000          -0.045133           -1.22812
    233       0.00000          -0.042952           -1.16879
    234       0.00000          -0.036254           -0.98652
    235       0.00000          -0.035561           -0.96767
    236       0.00000          -0.035364           -0.96231
    237       0.00000          -0.033059           -0.89959
    238       0.00000          -0.030925           -0.84152
    239       0.00000          -0.030796           -0.83801
    240       0.00000          -0.027169           -0.73930
    241       0.00000          -0.024968           -0.67941
    242       0.00000          -0.022522           -0.61287
    243       0.00000          -0.020780           -0.56544
    244       0.00000          -0.020035           -0.54518
    245       0.00000          -0.019583           -0.53287
    246       0.00000          -0.015031           -0.40902
    247       0.00000          -0.013771           -0.37473
    248       0.00000          -0.012465           -0.33918
    249       0.00000          -0.011099           -0.30202
    250       0.00000          -0.007397           -0.20129
    251       0.00000          -0.005425           -0.14763
    252       0.00000          -0.003416           -0.09295
    253       0.00000          -0.001615           -0.04396
    254       0.00000          -0.001148           -0.03123
    255       0.00000           0.000741            0.02016
    256       0.00000           0.002892            0.07869
    257       0.00000           0.004219            0.11481
    258       0.00000           0.005685            0.15469
    259       0.00000           0.005850            0.15919
    260       0.00000           0.007342            0.19978
    261       0.00000           0.008929            0.24298
    262       0.00000           0.011821            0.32167
    263       0.00000           0.014656            0.39880
    264       0.00000           0.017030            0.46342
    265       0.00000           0.018089            0.49223
    266       0.00000           0.020697            0.56320
    267       0.00000           0.029634            0.80638
    268       0.00000           0.032193            0.87601
    269       0.00000           0.035095            0.95499
    270       0.00000           0.036437            0.99149
    271       0.00000           0.038242            1.04063
    272       0.00000           0.038445            1.04615
    273       0.00000           0.040605            1.10492
    274       0.00000           0.041165            1.12015
    275       0.00000           0.043899            1.19455
    276       0.00000           0.046177            1.25655
    277       0.00000           0.048545            1.32097
    278       0.00000           0.050775            1.38165
    279       0.00000           0.053964            1.46842
    280       0.00000           0.054481            1.48251
    281       0.00000           0.056002            1.52391
    282       0.00000           0.056168            1.52842
    283       0.00000           0.057219            1.55701
    284       0.00000           0.058335            1.58738
    285       0.00000           0.060434            1.64448
    286       0.00000           0.062016            1.68755
    287       0.00000           0.062538            1.70174
    288       0.00000           0.063047            1.71558
    289       0.00000           0.063502            1.72798
    290       0.00000           0.067381            1.83354
    291       0.00000           0.068242            1.85697
    292       0.00000           0.068467            1.86308
    293       0.00000           0.069164            1.88206
    294       0.00000           0.071495            1.94547
    295       0.00000           0.073034            1.98735
    296       0.00000           0.074328            2.02257
    297       0.00000           0.075129            2.04435
    298       0.00000           0.075856            2.06415
    299       0.00000           0.077337            2.10445
    300       0.00000           0.079112            2.15274
    301       0.00000           0.079544            2.16450
    302       0.00000           0.082386            2.24184
    303       0.00000           0.082830            2.25393
    304       0.00000           0.084258            2.29278
    305       0.00000           0.085907            2.33765
    306       0.00000           0.087967            2.39371
    307       0.00000           0.088458            2.40707
    308       0.00000           0.089890            2.44604
    309       0.00000           0.090240            2.45557
    310       0.00000           0.092041            2.50457
    311       0.00000           0.092638            2.52080
    312       0.00000           0.095543            2.59986
    313       0.00000           0.097680            2.65801
    314       0.00000           0.100031            2.72198
    315       0.00000           0.101663            2.76638
    316       0.00000           0.102776            2.79667
    317       0.00000           0.106635            2.90168
    318       0.00000           0.107239            2.91812
    319       0.00000           0.108673            2.95715
    320       0.00000           0.108763            2.95959
    321       0.00000           0.111592            3.03658
    322       0.00000           0.111731            3.04035
    323       0.00000           0.112916            3.07260
    324       0.00000           0.113837            3.09766
    325       0.00000           0.116932            3.18189
    326       0.00000           0.117371            3.19384
    327       0.00000           0.117397            3.19453
    328       0.00000           0.121386            3.30307
    329       0.00000           0.121419            3.30398
    330       0.00000           0.123203            3.35251
    331       0.00000           0.123552            3.36201
    332       0.00000           0.125903            3.42599
    333       0.00000           0.127414            3.46711
    334       0.00000           0.129954            3.53622
    335       0.00000           0.131410            3.57586
    336       0.00000           0.131775            3.58577
    337       0.00000           0.132452            3.60419
    338       0.00000           0.132996            3.61900
    339       0.00000           0.134144            3.65024
    340       0.00000           0.138385            3.76564
    341       0.00000           0.138820            3.77747
    342       0.00000           0.141131            3.84038
    343       0.00000           0.141704            3.85596
    344       0.00000           0.144037            3.91944
    345       0.00000           0.144709            3.93773
    346       0.00000           0.145173            3.95036
    347       0.00000           0.145721            3.96526
    348       0.00000           0.146336            3.98200
    349       0.00000           0.146867            3.99646
    350       0.00000           0.147697            4.01903
    351       0.00000           0.149848            4.07758
    352       0.00000           0.150903            4.10627
    353       0.00000           0.154405            4.20156
    354       0.00000           0.156578            4.26071
    355       0.00000           0.157239            4.27869
    356       0.00000           0.159861            4.35005
    357       0.00000           0.161638            4.39841
    358       0.00000           0.162041            4.40937
    359       0.00000           0.163119            4.43871
    360       0.00000           0.163320            4.44417
    361       0.00000           0.167866            4.56786
    362       0.00000           0.169006            4.59889
    363       0.00000           0.172593            4.69650
    364       0.00000           0.173272            4.71498
    365       0.00000           0.175161            4.76638
    366       0.00000           0.177057            4.81797
    367       0.00000           0.177383            4.82684
    368       0.00000           0.178314            4.85218
    369       0.00000           0.178783            4.86493
    370       0.00000           0.182305            4.96076
    371       0.00000           0.183333            4.98876
    372       0.00000           0.186287            5.06914
    373       0.00000           0.186710            5.08064
    374       0.00000           0.187013            5.08888
    375       0.00000           0.190520            5.18430
    376       0.00000           0.191501            5.21101
    377       0.00000           0.193261            5.25890
    378       0.00000           0.195508            5.32005
    379       0.00000           0.196118            5.33665
    380       0.00000           0.196670            5.35166
    381       0.00000           0.197773            5.38168
    382       0.00000           0.198466            5.40053
    383       0.00000           0.199975            5.44161
    384       0.00000           0.202978            5.52330
    385       0.00000           0.204521            5.56529
    386       0.00000           0.205607            5.59485
    387       0.00000           0.208107            5.66288
    388       0.00000           0.209896            5.71157
    389       0.00000           0.210363            5.72428
    390       0.00000           0.214931            5.84856
    391       0.00000           0.216267            5.88491
    392       0.00000           0.217270            5.91221
    393       0.00000           0.218009            5.93232
    394       0.00000           0.222070            6.04283
    395       0.00000           0.222181            6.04586
    396       0.00000           0.225282            6.13023
    397       0.00000           0.225366            6.13253
    398       0.00000           0.227579            6.19274
    399       0.00000           0.228650            6.22190
    400       0.00000           0.229971            6.25784
    401       0.00000           0.231514            6.29983
    402       0.00000           0.231813            6.30794
    403       0.00000           0.234458            6.37992
    404       0.00000           0.234468            6.38019
    405       0.00000           0.239333            6.51259
    406       0.00000           0.240294            6.53873
    407       0.00000           0.241081            6.56015
    408       0.00000           0.244614            6.65629
    409       0.00000           0.245242            6.67339
    410       0.00000           0.245449            6.67900
    411       0.00000           0.250030            6.80366
    412       0.00000           0.250358            6.81258
    413       0.00000           0.251149            6.83410
    414       0.00000           0.254647            6.92931
    415       0.00000           0.254875            6.93549
[...]
    254       0.00000           0.099585            2.70985
    255       0.00000           0.103769            2.82369
    256       0.00000           0.103878            2.82667
    257       0.00000           0.107084            2.91391
    258       0.00000           0.107559            2.92683
    259       0.00000           0.108067            2.94065
    260       0.00000           0.110669            3.01145
    261       0.00000           0.111636            3.03776
    262       0.00000           0.112033            3.04856
    263       0.00000           0.116745            3.17678
    264       0.00000           0.121095            3.29516
    265       0.00000           0.125043            3.40261
    266       0.00000           0.128671            3.50131
    267       0.00000           0.131377            3.57496
    268       0.00000           0.132288            3.59975
    269       0.00000           0.135584            3.68942
    270       0.00000           0.135807            3.69550
    271       0.00000           0.137930            3.75326
    272       0.00000           0.141337            3.84598
    273       0.00000           0.145106            3.94853
    274       0.00000           0.146609            3.98942
    275       0.00000           0.148783            4.04859
    276       0.00000           0.149488            4.06779
    277       0.00000           0.150918            4.10670
    278       0.00000           0.152850            4.15927
    279       0.00000           0.154150            4.19462
    280       0.00000           0.155971            4.24419
    281       0.00000           0.157094            4.27474
    282       0.00000           0.157380            4.28253
    283       0.00000           0.158107            4.30231
    284       0.00000           0.159772            4.34761
    285       0.00000           0.160802            4.37564
    286       0.00000           0.161105            4.38390
    287       0.00000           0.164337            4.47182
    288       0.00000           0.165567            4.50530
    289       0.00000           0.168049            4.57284
    290       0.00000           0.168083            4.57378
    291       0.00000           0.171747            4.67348
    292       0.00000           0.172387            4.69089
    293       0.00000           0.173556            4.72271
    294       0.00000           0.178239            4.85012
    295       0.00000           0.180296            4.90610
    296       0.00000           0.182158            4.95677
    297       0.00000           0.184718            5.02644
    298       0.00000           0.184922            5.03199
    299       0.00000           0.188502            5.12941
    300       0.00000           0.190031            5.17099
    301       0.00000           0.190609            5.18673
    302       0.00000           0.192631            5.24175
    303       0.00000           0.193708            5.27107
    304       0.00000           0.194032            5.27989
    305       0.00000           0.195343            5.31555
    306       0.00000           0.197191            5.36584
    307       0.00000           0.201091            5.47197
    308       0.00000           0.201589            5.48551
    309       0.00000           0.202095            5.49928
    310       0.00000           0.207049            5.63408
    311       0.00000           0.207527            5.64710
    312       0.00000           0.209941            5.71280
    313       0.00000           0.209981            5.71389
    314       0.00000           0.212003            5.76891
    315       0.00000           0.215233            5.85678
    316       0.00000           0.216253            5.88454
    317       0.00000           0.216328            5.88660
    318       0.00000           0.219238            5.96576
    319       0.00000           0.220256            5.99346
    320       0.00000           0.221424            6.02524
    321       0.00000           0.221703            6.03286
    322       0.00000           0.223764            6.08894
    323       0.00000           0.225814            6.14470
    324       0.00000           0.226616            6.16654
    325       0.00000           0.226799            6.17153
    326       0.00000           0.227698            6.19598
    327       0.00000           0.227757            6.19757
    328       0.00000           0.229280            6.23904
    329       0.00000           0.229478            6.24441
    330       0.00000           0.230673            6.27694
    331       0.00000           0.231262            6.29297
    332       0.00000           0.232606            6.32953
    333       0.00000           0.234558            6.38264
    334       0.00000           0.234646            6.38505
    335       0.00000           0.236447            6.43405
    336       0.00000           0.236480            6.43496
    337       0.00000           0.238111            6.47933
    338       0.00000           0.239009            6.50376
    339       0.00000           0.241566            6.57335
    340       0.00000           0.241715            6.57739
    341       0.00000           0.243588            6.62837
    342       0.00000           0.244042            6.64071
    343       0.00000           0.246789            6.71548
    344       0.00000           0.248082            6.75066
    345       0.00000           0.248377            6.75868
    346       0.00000           0.249069            6.77751
    347       0.00000           0.249885            6.79973
    348       0.00000           0.250844            6.82580
    349       0.00000           0.253962            6.91066
    350       0.00000           0.254237            6.91814
    351       0.00000           0.258673            7.03884
    352       0.00000           0.260922            7.10006
    353       0.00000           0.262025            7.13007
    354       0.00000           0.262894            7.15371
    355       0.00000           0.263213            7.16238
    356       0.00000           0.265575            7.22667
    357       0.00000           0.267116            7.26859
    358       0.00000           0.270210            7.35278
    359       0.00000           0.272430            7.41319
    360       0.00000           0.274028            7.45668
    361       0.00000           0.276311            7.51881
    362       0.00000           0.277941            7.56315
    363       0.00000           0.281079            7.64856
    364       0.00000           0.282019            7.67412
    365       0.00000           0.282914            7.69849
    366       0.00000           0.285861            7.77868
    367       0.00000           0.286367            7.79245
    368       0.00000           0.286939            7.80802
    369       0.00000           0.287999            7.83686
    370       0.00000           0.289696            7.88302
    371       0.00000           0.289722            7.88373
    372       0.00000           0.291158            7.92282
    373       0.00000           0.293302            7.98116
    374       0.00000           0.294727            8.01993
    375       0.00000           0.295059            8.02897
    376       0.00000           0.297128            8.08527
    377       0.00000           0.299217            8.14210
    378       0.00000           0.301672            8.20891
    379       0.00000           0.302184            8.22286
    380       0.00000           0.303074            8.24706
    381       0.00000           0.306008            8.32690
    382       0.00000           0.306415            8.33799
    383       0.00000           0.311820            8.48505
    384       0.00000           0.314311            8.55283
    385       0.00000           0.315823            8.59399
    386       0.00000           0.317929            8.65128
    387       0.00000           0.319311            8.68891
    388       0.00000           0.322705            8.78125
    389       0.00000           0.323471            8.80208
    390       0.00000           0.327172            8.90281
    391       0.00000           0.330002            8.97981
    392       0.00000           0.332905            9.05880
    393       0.00000           0.333257            9.06838
    394       0.00000           0.334560            9.10384
    395       0.00000           0.337017            9.17070
    396       0.00000           0.340193            9.25713
    397       0.00000           0.343007            9.33370
    398       0.00000           0.344985            9.38753
    399       0.00000           0.346129            9.41864
    400       0.00000           0.347269            9.44967
    401       0.00000           0.347326            9.45121
    402       0.00000           0.348773            9.49060
    403       0.00000           0.349363            9.50665
    404       0.00000           0.353441            9.61763
    405       0.00000           0.355559            9.67524
    406       0.00000           0.357608            9.73102
    407       0.00000           0.358663            9.75971
    408       0.00000           0.362278            9.85809
    409       0.00000           0.362458            9.86300
    410       0.00000           0.364858            9.92829
    411       0.00000           0.370141           10.07205
    412       0.00000           0.370169           10.07281
    413       0.00000           0.372259           10.12968
    414       0.00000           0.374456           10.18947
    415       0.00000           0.375315           10.21284
    416       0.00000           0.375399           10.21513
    417       0.00000           0.377382           10.26909
    418       0.00000           0.379510           10.32699
    419       0.00000           0.381638           10.38491
    420       0.00000           0.383154           10.42615
    421       0.00000           0.388548           10.57292
    422       0.00000           0.390571           10.62797
    423       0.00000           0.390611           10.62908
    424       0.00000           0.391699           10.65866

  Highest occupied state (VBM) at     -4.25581403 eV
  | Occupation number:      2.00000000

  Lowest unoccupied state (CBM) at    -3.16491361 eV
  | Occupation number:      0.00000000

  Overall HOMO-LUMO gap:      1.09090042 eV.

  Total energy components:
  | Sum of eigenvalues            :       -1269.51724795 Ha      -34545.32196337 eV
  | XC energy correction          :        -326.91733890 Ha       -8895.87340853 eV
  | XC potential correction       :         419.97300290 Ha       11428.04686143 eV
  | Free-atom electrostatic energy:        -971.99048469 Ha      -26449.20680918 eV
  | Hartree energy correction     :         -83.65480185 Ha       -2276.36297834 eV
  | Entropy correction            :           0.00000000 Ha           0.00000000 eV
  | ---------------------------
  | Total energy                  :       -2232.10687049 Ha      -60738.71829799 eV
  | Total energy, T -> 0          :       -2232.10687049 Ha      -60738.71829799 eV  <-- do not rely on this value for anything but (periodic) metals
  | Electronic free energy        :       -2232.10687049 Ha      -60738.71829799 eV

  Derived energy quantities:
  | Kinetic energy                :        2226.78198535 Ha       60593.82080107 eV
  | Electrostatic energy          :       -4131.97151694 Ha     -112436.66569052 eV
  | Energy correction for multipole
  | error in Hartree potential    :          -0.26074821 Ha          -7.09531974 eV
  | Sum of eigenvalues per atom                           :        -359.84710379 eV
  | Total energy (T->0) per atom                          :        -632.69498227 eV  <-- do not rely on this value for anything but (periodic) metals
  | Electronic free energy per atom                       :        -632.69498227 eV
  End evaluation of scaled ZORA corrections.
  | Time for scaled ZORA corrections           :       13.889 s          13.901 s
------------------------------------------------------------

  Energy and forces in a compact form:
  | Total energy uncorrected      :         -0.607387182979876E+05 eV
  | Total energy corrected        :         -0.607387182979876E+05 eV  <-- do not rely on this value for anything but (periodic) metals
  | Electronic free energy        :         -0.607387182979876E+05 eV

  ------------------------------------ 
  Start decomposition of the XC Energy 
  ------------------------------------ 
  X and C from original XC functional choice 
  Hartree-Fock Energy :          0.000000000 Ha              0.000000000 eV
  X Energy            :       -313.995040818 Ha          -8544.239786791 eV
  C Energy            :        -12.922298082 Ha           -351.633621742 eV
  Total XC Energy     :       -326.917338900 Ha          -8895.873408532 eV
  ------------------------------------ 
  LDA X and C from self-consistent density 
  X Energy LDA        :       -284.390371384 Ha          -7738.655743827 eV
  C Energy LDA        :        -24.886991953 Ha           -677.209507084 eV
  ------------------------------------ 
  End decomposition of the XC Energy 
  ------------------------------------ 

------------------------------------------------------------

------------------------------------------------------------------------------
  Final output of selected total energy values:

  The following output summarizes some interesting total energy values
  at the end of a run (AFTER all relaxation, molecular dynamics, etc.).

  | Total energy of the DFT / Hartree-Fock s.c.f. calculation      :         -60738.718297988 eV
  | Final zero-broadening corrected energy (caution - metals only) :         -60738.718297988 eV
  | For reference only, the value of 1 Hartree used in FHI-aims is :             27.211384500 eV

  Before relying on these values, please be sure to understand exactly which
  total energy value is referred to by a given number. Different objects may
  all carry the same name 'total energy'. Definitions:

  Total energy of the DFT / Hartree-Fock s.c.f. calculation:
  | Note that this energy does not include ANY quantities calculated after the
  | s.c.f. cycle, in particular not ANY RPA, MP2, etc. many-body perturbation terms.
  | Scalar relativistic effects have been included in the 'scaled ZORA' approximation.

  Final zero-broadening corrected energy:
  | For metallic systems only, a broadening of the occupation numbers at the Fermi
  | level can be extrapolated back to zero broadening by an electron-gas inspired
  | formula. For all systems that are not real metals, this value can be
  | meaningless and should be avoided.

------------------------------------------------------------------------------
  Methods described in the following list of references were used in this FHI-aims run.
  If you publish the results, please make sure to cite these reference if they apply.
  FHI-aims is an academic code, and for our developers (often, Ph.D. students
  and postdocs), scientific credit in the community is essential.
  Thank you for helping us!

  For any use of FHI-aims, please cite:

    Volker Blum, Ralf Gehrke, Felix Hanke, Paula Havu, Ville Havu,
    Xinguo Ren, Karsten Reuter, and Matthias Scheffler
    'Ab initio molecular simulations with numeric atom-centered orbitals'
    Computer Physics Communications 180, 2175-2196 (2009)
    http://dx.doi.org/10.1016/j.cpc.2009.06.022


  The scalable eigensolver library ELPA was used in your run.
  ELPA is essential especially for large systems on hundreds or thousands of CPUs.
  For ELPA, please cite:

    Andreas Marek, Volker Blum, Rainer Johanni, Ville Havu, Bruno Lang,
    Thomas Auckenthaler, Alexander Heinecke, Hans-Joachim Bungartz, and Hermann Lederer,
    'The ELPA Library - Scalable Parallel Eigenvalue Solutions
    for Electronic Structure Theory and Computational Science'
    The Journal of Physics: Condensed Matter 26, 213201 (2014).
    http://dx.doi.org/10.1088/0953-8984/26/21/213201


  The ELSI infrastructure was used in your run to solve the Kohn-Sham electronic structure.
  Please check out http://elsi-interchange.org to learn more.
  If scalability is important for your project, please acknowledge ELSI by citing:

    V. W-z. Yu, F. Corsetti, A. Garcia, W. P. Huhn, M. Jacquelin, W. Jia,
    B. Lange, L. Lin, J. Lu, W. Mi, A. Seifitokaldani, A. Vazquez-Mayagoitia,
    C. Yang, H. Yang, and V. Blum
    'ELSI: A unified software interface for Kohn-Sham electronic structure solvers'
    Computer Physics Communications 222, 267-285 (2018).
    http://dx.doi.org/10.1016/j.cpc.2017.09.007


  For the real-space grid partitioning and parallelization used in this calculation, please cite:

    Ville Havu, Volker Blum, Paula Havu, and Matthias Scheffler,
    'Efficient O(N) integration for all-electron electronic structure calculation'
    'using numerically tabulated basis functions'
    Journal of Computational Physics 228, 8367-8379 (2009).
    http://dx.doi.org/10.1016/j.jcp.2009.08.008

  Of course, there are many other important community references, e.g., those cited in the
  above references. Our list is limited to references that describe implementations in the
  FHI-aims code. The reason is purely practical (length of this list) - please credit others as well.

------------------------------------------------------------
          Leaving FHI-aims.
          Date     :  20210620, Time     :  175610.939

          Computational steps:
          | Number of self-consistency cycles          :           18
          | Number of SCF (re)initializations          :            1

          Detailed time accounting                     :  max(cpu_time)    wall_clock(cpu1)
          | Total time                                 :      290.535 s         290.761 s
          | Preparation time                           :        0.190 s           0.202 s
          | Boundary condition initalization           :        0.001 s           0.004 s
          | Grid partitioning                          :        1.802 s           1.806 s
          | Preloading free-atom quantities on grid    :        0.013 s           0.017 s
          | Free-atom superposition energy             :        0.176 s           0.176 s
          | Total time for integrations                :      147.840 s         147.847 s
          | Total time for solution of K.-S. equations :       11.346 s          11.371 s
          | Total time for density update              :       78.957 s          78.881 s
          | Total time for mixing                      :        0.305 s           0.309 s
          | Total time for Hartree multipole update    :        0.314 s           0.319 s
          | Total time for Hartree multipole sum       :       33.018 s          33.020 s
          | Total time for total energy evaluation     :        0.008 s           0.033 s
          | Total time for scaled ZORA corrections     :       13.889 s          13.901 s

          Partial memory accounting:
          | Residual value for overall tracked memory usage across tasks :     0.000000 MB (should be 0.000000 MB)
          | Peak values for overall tracked memory usage (after allocating zora_vector2):
          |   Minimum:       41.934 MB (on task 56)
          |   Maximum:       58.632 MB (on task 43)
          |   Average:       49.210 MB
          | Largest tracked array allocation (hamiltonian_shell):
          |   Minimum:        9.751 MB (on task  1)
          |   Maximum:       14.281 MB (on task 18)
          |   Average:       10.219 MB
          Note:  These values currently only include a subset of arrays which are explicitly tracked.
          The "true" memory usage will be greater.

          Have a nice day.
------------------------------------------------------------
