  MPI-parallelism will be employed.
------------------------------------------------------------
          Invoking FHI-aims ...
          Version 180607
          Git rev. (modified): 6724847 Fix JSON memory corruption in scf_solver
          Compiled on 2018/06/27 at 16:00:31 on host coe.psc.edu.

          When using FHI-aims, please cite the following reference:

          Volker Blum, Ralf Gehrke, Felix Hanke, Paula Havu,
          Ville Havu, Xinguo Ren, Karsten Reuter, and Matthias Scheffler,
          'Ab Initio Molecular Simulations with Numeric Atom-Centered Orbitals',
          Computer Physics Communications 180, 2175-2196 (2009)

          For any questions about FHI-aims, please visit the aimsclub website
          with its forums and wiki. Contributions to both the forums and the
          wiki are warmly encouraged - they are for you, and everyone is welcome there.

------------------------------------------------------------



  Date     :  20210727, Time     :  231112.455
  Time zero on CPU 1             :   0.275087000000000E+00  s.
  Internal wall clock time zero  :           396659472.455  s.

  FHI-aims created a unique identifier for this run for later identification
  aims_uuid : 548DC58D-1517-4AAB-AB33-4F9D2ED5BADD

  Using       56 parallel tasks.
  Task        0 on host d018 reporting.
  Task        1 on host d018 reporting.
  Task        2 on host d018 reporting.
  Task        3 on host d018 reporting.
  Task        4 on host d018 reporting.
  Task        5 on host d018 reporting.
  Task        6 on host d018 reporting.
  Task        7 on host d018 reporting.
  Task        8 on host d018 reporting.
  Task        9 on host d018 reporting.
  Task       10 on host d018 reporting.
  Task       11 on host d018 reporting.
  Task       12 on host d018 reporting.
  Task       13 on host d018 reporting.
  Task       14 on host d018 reporting.
  Task       15 on host d018 reporting.
  Task       16 on host d018 reporting.
  Task       17 on host d018 reporting.
  Task       18 on host d018 reporting.
  Task       19 on host d018 reporting.
  Task       20 on host d018 reporting.
  Task       21 on host d018 reporting.
  Task       22 on host d018 reporting.
  Task       23 on host d018 reporting.
  Task       24 on host d018 reporting.
  Task       25 on host d018 reporting.
  Task       26 on host d018 reporting.
  Task       27 on host d018 reporting.
  Task       28 on host d018 reporting.
  Task       29 on host d018 reporting.
  Task       30 on host d018 reporting.
  Task       31 on host d018 reporting.
  Task       32 on host d018 reporting.
  Task       33 on host d018 reporting.
  Task       34 on host d018 reporting.
  Task       35 on host d018 reporting.
  Task       36 on host d018 reporting.
  Task       37 on host d018 reporting.
  Task       38 on host d018 reporting.
  Task       39 on host d018 reporting.
  Task       40 on host d018 reporting.
  Task       41 on host d018 reporting.
  Task       42 on host d018 reporting.
  Task       43 on host d018 reporting.
  Task       44 on host d018 reporting.
  Task       45 on host d018 reporting.
  Task       46 on host d018 reporting.
  Task       47 on host d018 reporting.
  Task       48 on host d018 reporting.
  Task       49 on host d018 reporting.
  Task       50 on host d018 reporting.
  Task       51 on host d018 reporting.
  Task       52 on host d018 reporting.
  Task       53 on host d018 reporting.
  Task       54 on host d018 reporting.
  Task       55 on host d018 reporting.

  Performing system and environment tests:
  *** Environment variable OMP_NUM_THREADS is not set
  *** For performance reasons you might want to set it to 1
  | Stacksize not measured: no C compiler
  | Checking for scalapack...
  | Testing pdtran()...
  | All pdtran() tests passed.

  Obtaining array dimensions for all initial allocations:
  
  -----------------------------------------------------------------------
  Parsing control.in (first pass over file, find array dimensions only).
  The contents of control.in will be repeated verbatim below
  unless switched off by setting 'verbatim_writeout .false.' .
  in the first line of control.in .
  -----------------------------------------------------------------------
  
  #===============================================================================
  # FHI-aims file: ./Runs/es/control.in
  # Created using the Atomic Simulation Environment (ASE)
  # Mon Jan 13 16:04:38 2020
  #===============================================================================
  xc                                 pbe
  relativistic                       zora scalar 1e-12
  occupation_type                    gaussian 0.0001
  load_balancing                     .true.
  KS_method                          scalapack_fast
  mixer                              pulay
  n_max_pulay                        5
  charge_mix_param                   0.4
  sc_accuracy_etot                   1e-6
  sc_accuracy_eev                    1e-4
  sc_accuracy_rho                    1e-6
  sc_iter_limit                      100
  prodbas_threshold                  1e-4
  basis_threshold                    1e-5
  override_illconditioning           .true.
  use_logsbt                         .true.
  spin                               none
  charge                             0
  #===============================================================================
  
  ################################################################################
  #
  #  FHI-aims code project
  # Volker Blum, Fritz Haber Institute Berlin, 2009
  #
  #  Suggested "tight" defaults for H atom (to be pasted into control.in file)
  #
  ################################################################################
    species        H
  #     global species definitions
      nucleus             1
      mass                1.00794
  #
      l_hartree           6
  #
      cut_pot             4.0  2.0  1.0
      basis_dep_cutoff    1e-4
  #
      radial_base         24 7.0
      radial_multiplier   2
      angular_grids       specified
        division   0.1930   50
        division   0.3175  110
        division   0.4293  194
        division   0.5066  302
        division   0.5626  434
  #      division   0.5922  590
  #      division   0.6227  974
  #      division   0.6868 1202
  #      outer_grid  770
        outer_grid  434
  ################################################################################
  #
  #  Definition of "minimal" basis
  #
  ################################################################################
  #     valence basis states
      valence      1  s   1.
  #     ion occupancy
      ion_occ      1  s   0.5
  ################################################################################
  #
  #  Suggested additional basis functions. For production calculations,
  #  uncomment them one after another (the most important basis functions are
  #  listed first).
  #
  #  Basis constructed for dimers: 0.5 A, 0.7 A, 1.0 A, 1.5 A, 2.5 A
  #
  ################################################################################
  #  "First tier" - improvements: -1014.90 meV to -62.69 meV
       hydro 2 s 2.1
       hydro 2 p 3.5
  #  "Second tier" - improvements: -12.89 meV to -1.83 meV
       hydro 1 s 0.85
       hydro 2 p 3.7
       hydro 2 s 1.2
       hydro 3 d 7
  #  "Third tier" - improvements: -0.25 meV to -0.12 meV
  #     hydro 4 f 11.2
  #     hydro 3 p 4.8
  #     hydro 4 d 9
  #     hydro 3 s 3.2
  ################################################################################
  #
  # For methods that use the localized form of the "resolution of identity" for
  # the two-electron Coulomb operator (RI_method LVL), particularly Hartree-Fock and
  # hybrid density functional calculations, the highest accuracy can be obtained by
  # uncommenting the line beginning with "for_aux"  below, thus adding an extra g radial
  # function to the construction of the product basis set for the expansion.
  # See Ref. New J. Phys. 17, 093020 (2015) for more information, particularly Figs. 1 and 6.
  #
  ################################################################################
  #
  # for_aux hydro 5 g 6.0
  ################################################################################
  #
  #  FHI-aims code project
  # Volker Blum, Fritz Haber Institute Berlin, 2009
  #
  #  Suggested "tight" defaults for C atom (to be pasted into control.in file)
  #
  ################################################################################
    species        C
  #     global species definitions
      nucleus             6
      mass                12.0107
  #
      l_hartree           6
  #
      cut_pot             4.0  2.0  1.0
      basis_dep_cutoff    1e-4
  #
      radial_base         34 7.0
      radial_multiplier   2
      angular_grids specified
        division   0.2187   50
        division   0.4416  110
        division   0.6335  194
        division   0.7727  302
        division   0.8772  434
  #      division   0.9334  590
  #      division   0.9924  770
  #      division   1.0230  974
  #      division   1.5020 1202
  #     outer_grid  974
        outer_grid  434
  ################################################################################
  #
  #  Definition of "minimal" basis
  #
  ################################################################################
  #     valence basis states
      valence      2  s   2.
      valence      2  p   2.
  #     ion occupancy
      ion_occ      2  s   1.
      ion_occ      2  p   1.
  ################################################################################
  #
  #  Suggested additional basis functions. For production calculations,
  #  uncomment them one after another (the most important basis functions are
  #  listed first).
  #
  #  Constructed for dimers: 1.0 A, 1.25 A, 1.5 A, 2.0 A, 3.0 A
  #
  ################################################################################
  #  "First tier" - improvements: -1214.57 meV to -155.61 meV
       hydro 2 p 1.7
       hydro 3 d 6
       hydro 2 s 4.9
  #  "Second tier" - improvements: -67.75 meV to -5.23 meV
       hydro 4 f 9.8
       hydro 3 p 5.2
       hydro 3 s 4.3
       hydro 5 g 14.4
       hydro 3 d 6.2
  #  "Third tier" - improvements: -2.43 meV to -0.60 meV
  #     hydro 2 p 5.6
  #     hydro 2 s 1.4
  #     hydro 3 d 4.9
  #     hydro 4 f 11.2
  #  "Fourth tier" - improvements: -0.39 meV to -0.18 meV
  #     hydro 2 p 2.1
  #     hydro 5 g 16.4
  #     hydro 4 d 13.2
  #     hydro 3 s 13.6
  #     hydro 4 f 17.6
  #  Further basis functions - improvements: -0.08 meV and below
  #     hydro 3 s 2
  #     hydro 3 p 6
  #     hydro 4 d 20
  ################################################################################
  #
  # For methods that use the localized form of the "resolution of identity" for
  # the two-electron Coulomb operator (RI_method LVL), particularly Hartree-Fock and
  # hybrid density functional calculations, the highest accuracy can be obtained by
  # uncommenting the line beginning with "for_aux"  below, thus adding an extra g radial
  # function to the construction of the product basis set for the expansion.
  # See Ref. New J. Phys. 17, 093020 (2015) for more information, particularly Figs. 1 and 6.
  #
  ################################################################################
  #
  # for_aux hydro 5 g 6.0
  
  -----------------------------------------------------------------------
  Completed first pass over input file control.in .
  -----------------------------------------------------------------------
  
  
  -----------------------------------------------------------------------
  Parsing geometry.in (first pass over file, find array dimensions only).
  The contents of geometry.in will be repeated verbatim below
  unless switched off by setting 'verbatim_writeout .false.' .
  in the first line of geometry.in .
  -----------------------------------------------------------------------
  
  #=======================================================
  # FHI-aims file: geometry.in
  # Created using the Atomic Simulation Environment (ASE)
  # Mon Jul 26 17:53:15 2021
  #=======================================================
  atom 41.9905559999999980 69.9046969999999988 29.7943320000000007 H
  atom 41.9212550000000022 69.9680800000000005 30.8797789999999992 C
  atom 41.8133180000000024 71.2122849999999943 31.4862089999999988 C
  atom 41.9338589999999982 68.8233670000000046 31.6442300000000003 C
  atom 41.7937220000000025 72.1119769999999960 30.8721150000000009 H
  atom 41.7042489999999972 71.3226760000000013 32.8663650000000018 C
  atom 41.8348080000000024 68.9175489999999940 33.0096929999999986 C
  atom 42.0489120000000014 67.8497619999999984 31.1670349999999985 H
  atom 41.5147120000000029 72.6571500000000015 33.5235020000000006 C
  atom 41.7166909999999973 70.1558849999999978 33.6252769999999970 C
  atom 41.8762979999999985 68.0180890000000034 33.6262270000000001 H
  atom 40.2723009999999988 72.9606560000000002 34.1060850000000002 C
  atom 42.5585379999999986 73.5975700000000046 33.5784239999999983 C
  atom 41.6270529999999965 70.2233109999999954 34.7078109999999995 H
  atom 39.1463899999999967 71.9732850000000042 34.0321330000000017 C
  atom 40.0598189999999974 74.1995509999999996 34.7299799999999976 C
  atom 42.3268279999999990 74.8616169999999954 34.1589600000000004 C
  atom 43.9471830000000026 73.2507460000000066 33.1150799999999990 C
  atom 38.4425349999999995 71.8030870000000050 32.8582960000000028 C
  atom 38.7808899999999994 71.2237429999999989 35.1410520000000020 C
  atom 38.7387159999999966 74.4874059999999929 35.3782039999999967 C
  atom 41.0756909999999991 75.1687560000000019 34.7198629999999966 C
  atom 43.4126660000000015 75.8892320000000069 34.1677520000000001 C
  atom 44.8751540000000020 72.7890600000000063 34.0409259999999989 C
  atom 44.3626130000000032 73.4301669999999973 31.8015289999999986 C
  atom 37.3925679999999971 70.8939680000000010 32.7891610000000000 C
  atom 38.7019919999999971 72.3978129999999993 31.9815199999999997 H
  atom 37.7343159999999997 70.3146239999999949 35.0633660000000020 C
  atom 39.3281970000000030 71.3535150000000016 36.0751559999999998 H
  atom 38.5915139999999965 74.3504649999999998 36.7401740000000032 C
  atom 37.6397899999999979 74.8618969999999990 34.6483199999999982 C
  atom 40.7745010000000008 76.5554910000000035 35.2125950000000003 C
  atom 43.9276309999999981 76.3833369999999974 32.9733189999999965 C
  atom 43.9347410000000025 76.3729960000000005 35.3632690000000025 C
  atom 44.5646569999999969 72.6195649999999944 35.0707799999999992 H
  atom 46.1873689999999968 72.5319470000000024 33.6724900000000034 C
  atom 43.6540600000000012 73.7984459999999984 31.0583729999999996 H
  atom 45.6785449999999997 73.1803199999999947 31.4323709999999998 C
  atom 36.8391120000000001 70.7836790000000065 31.8555740000000007 H
  atom 37.0490429999999975 70.1474999999999937 33.8865180000000024 C
  atom 37.4620019999999982 69.7229659999999996 35.9383709999999965 H
  atom 37.3680080000000032 74.5581119999999942 37.3576849999999965 C
  atom 39.4555360000000022 74.0600199999999944 37.3408980000000028 H
  atom 36.4195160000000016 75.0849149999999952 35.2753459999999990 C
  atom 37.7252930000000006 74.9870209999999986 33.5684669999999983 H
  atom 40.3614940000000004 77.5193869999999947 34.3089110000000019 C
  atom 40.8756520000000023 76.9126550000000009 36.5425269999999998 C
  atom 43.5201029999999989 76.0284199999999970 32.0293920000000014 H
  atom 44.9430189999999996 77.3257129999999933 32.9733189999999965 C
  atom 43.5550870000000003 75.9903520000000015 36.3081719999999990 H
  atom 44.9359090000000023 77.3360540000000043 35.3632690000000025 C
  atom 46.8983190000000008 72.1600310000000036 34.4097560000000016 H
  atom 46.5905190000000005 72.7359610000000032 32.3676109999999966 C
  atom 45.9934340000000006 73.3380630000000053 30.4012640000000012 H
  atom 36.2450309999999973 69.4193410000000029 33.8252359999999967 H
  atom 37.2830999999999975 74.4183699999999959 38.4358099999999965 H
  atom 36.2860480000000010 74.9298079999999942 36.6146719999999988 C
  atom 35.5638709999999989 75.4036899999999974 34.6788179999999997 H
  atom 40.2544439999999994 77.2588499999999954 33.2572770000000020 H
  atom 40.0677370000000010 78.8097039999999964 34.7226330000000019 C
  atom 40.5768849999999972 78.2043699999999973 36.9588979999999978 C
  atom 41.2084210000000013 76.1734349999999978 37.2723540000000000 H
  atom 45.3505469999999988 77.6806299999999936 32.0293920000000014 H
  atom 45.4579840000000033 77.8198179999999979 34.1677520000000001 C
  atom 45.3155629999999974 77.7186980000000034 36.3081719999999990 H
  atom 47.6164079999999998 72.5190929999999980 32.0707850000000008 H
  atom 35.3196689999999975 75.1062270000000041 37.0890330000000006 H
  atom 39.7518219999999971 79.5497830000000050 33.9867059999999981 H
  atom 40.1748660000000015 79.1492609999999956 36.0493129999999979 C
  atom 40.6678509999999989 78.4652399999999943 38.0122590000000002 H
  atom 46.5438219999999987 78.8474329999999952 34.1589600000000004 C
  atom 39.9446560000000019 80.1626779999999997 36.3795459999999977 H
  atom 46.3121119999999991 80.1114800000000002 33.5784239999999983 C
  atom 47.7949589999999986 78.5402940000000029 34.7198629999999966 C
  atom 44.9234670000000023 80.4583039999999983 33.1150799999999990 C
  atom 47.3559380000000019 81.0519000000000034 33.5235020000000006 C
  atom 48.0961489999999969 77.1535590000000013 35.2125950000000003 C
  atom 48.8108310000000003 79.5095000000000027 34.7299799999999976 C
  atom 44.5080370000000016 80.2788829999999933 31.8015289999999986 C
  atom 43.9954960000000028 80.9199899999999985 34.0409259999999989 C
  atom 47.1664010000000005 82.3863740000000035 32.8663650000000018 C
  atom 48.5983489999999989 80.7483940000000047 34.1060850000000002 C
  atom 47.9949980000000025 76.7963950000000040 36.5425269999999998 C
  atom 48.5091559999999973 76.1896629999999959 34.3089110000000019 C
  atom 50.1319340000000011 79.2216439999999977 35.3782039999999967 C
  atom 43.1921049999999980 80.5287299999999959 31.4323709999999998 C
  atom 45.2165899999999965 79.9106040000000064 31.0583729999999996 H
  atom 42.6832810000000009 81.1771030000000025 33.6724900000000034 C
  atom 44.3059930000000008 81.0894849999999963 35.0707799999999992 H
  atom 47.0573320000000024 82.4967649999999963 31.4862089999999988 C
  atom 47.1539590000000004 83.5531650000000070 33.6252769999999970 C
  atom 49.7242600000000010 81.7357650000000007 34.0321330000000017 C
  atom 47.6622290000000035 77.5356150000000071 37.2723540000000000 H
  atom 48.2937650000000005 75.5046799999999934 36.9588979999999978 C
  atom 48.8029129999999967 74.8993459999999942 34.7226330000000019 C
  atom 48.6162059999999983 76.4501999999999953 33.2572770000000020 H
  atom 51.2308599999999998 78.8471530000000058 34.6483199999999982 C
  atom 50.2791360000000012 79.3585850000000050 36.7401740000000032 C
  atom 42.8772159999999971 80.3709869999999995 30.4012640000000012 H
  atom 42.2801309999999972 80.9730890000000016 32.3676109999999966 C
  atom 41.9723309999999969 81.5490190000000013 34.4097560000000016 H
  atom 46.9493950000000027 83.7409700000000043 30.8797789999999992 C
  atom 47.0769280000000023 81.5970729999999946 30.8721150000000009 H
  atom 47.0358420000000024 84.7915009999999967 33.0096929999999986 C
  atom 47.2435970000000012 83.4857389999999953 34.7078109999999995 H
  atom 50.4281149999999982 81.9059629999999999 32.8582960000000028 C
  atom 50.0897610000000029 82.4853070000000059 35.1410520000000020 C
  atom 48.2027989999999988 75.2438099999999963 38.0122590000000002 H
  atom 48.6957840000000033 74.5597889999999950 36.0493129999999979 C
  atom 49.1188280000000006 74.1592669999999998 33.9867059999999981 H
  atom 51.1453569999999971 78.7220290000000062 33.5684669999999983 H
  atom 52.4511340000000033 78.6241349999999954 35.2753459999999990 C
  atom 49.4151140000000026 79.6490299999999962 37.3408980000000028 H
  atom 51.5026420000000016 79.1509379999999965 37.3576849999999965 C
  atom 41.2542419999999979 81.1899570000000068 32.0707850000000008 H
  atom 46.8800939999999997 83.8043530000000061 29.7943320000000007 H
  atom 46.9367909999999995 84.8856830000000002 31.6442300000000003 C
  atom 46.9943519999999992 85.6909610000000015 33.6262270000000001 H
  atom 50.1686580000000006 81.3112370000000055 31.9815199999999997 H
  atom 51.4780820000000006 82.8150820000000039 32.7891610000000000 C
  atom 49.5424530000000019 82.3555350000000033 36.0751559999999998 H
  atom 51.1363339999999980 83.3944259999999957 35.0633660000000020 C
  atom 48.9259940000000029 73.5463720000000052 36.3795459999999977 H
  atom 53.3067789999999988 78.3053599999999932 34.6788179999999997 H
  atom 52.5846019999999967 78.7792419999999964 36.6146719999999988 C
  atom 51.5875500000000002 79.2906799999999947 38.4358099999999965 H
  atom 46.8217380000000034 85.8592880000000065 31.1670349999999985 H
  atom 52.0315379999999976 82.9253709999999984 31.8555740000000007 H
  atom 51.8216070000000002 83.5615499999999969 33.8865180000000024 C
  atom 51.4086479999999995 83.9860840000000053 35.9383709999999965 H
  atom 53.5509810000000002 78.6028230000000008 37.0890330000000006 H
  atom 52.6256190000000004 84.2897090000000020 33.8252359999999967 H
  
  -----------------------------------------------------------------------
  Completed first pass over input file geometry.in .
  -----------------------------------------------------------------------
  

  Basic array size parameters:
  | Number of species                 :        2
  | Number of atoms                   :      132
  | Max. basis fn. angular momentum   :        4
  | Max. atomic/ionic basis occupied n:        2
  | Max. number of basis fn. types    :        2
  | Max. radial fns per species/type  :        8
  | Max. logarithmic grid size        :     1277
  | Max. radial integration grid size :       69
  | Max. angular integration grid size:      434
  | Max. angular grid division number :        8
  | Radial grid for Hartree potential :     1277
  | Number of spin channels           :        1

------------------------------------------------------------
          Reading file control.in.
------------------------------------------------------------
  XC: Using PBE gradient-corrected functionals.
  Scalar relativistic treatment of kinetic energy: ZORA.
  Threshold value for ZORA:   0.100000E-11
  Occupation type: Gaussian broadening, width =   0.100000E-03 eV.
  Since 'load_balancing .true.' is present in control.in, automatically turning on 'use_local_index .true.'.
  Using load balancing for integrations.
  Kohn-Sham electronic structure solved by the ELSI library.
  Using pulay charge density mixing.
  Pulay mixing - number of memorized iterations:    5
  Charge density mixing - mixing parameter:     0.4000
  Convergence accuracy of total energy:  0.1000E-05
  Convergence accuracy of sum of eigenvalues:  0.1000E-03
  Convergence accuracy of self-consistent charge density:  0.1000E-05
  Maximum number of s.-c. iterations  :   100
  * Ignoring prodbas_threshold
  Threshold for basis singularities:  0.1000E-04
  override_illconditioning: Explicitly overriding any built-in checks for an ill-conditioned overlap matrix.
  *** WARNING: If you use this flag, you should really know what you are doing.
  *** DO NOT keep this flag set by default in all your control.in files.
  Using 1D integrations for auxiliary 2-center integrals.
  Spin treatment: No spin polarisation.
  Charge =   0.000000E+00: Neutral system requested explicitly.
 
  Reading configuration options for species H                   .
  | Found nuclear charge :   1.0000
  | Found atomic mass :    1.00794000000000      amu
  | Found l_max for Hartree potential  :   6
  | Found cutoff potl. onset [A], width [A], scale factor :    4.00000    2.00000    1.00000
  | Threshold for basis-dependent cutoff potential is   0.100000E-03
  | Found data for basic radial integration grid :    24 points, outermost radius =    7.000 A
  | Found multiplier for basic radial grid :   2
  | Found angular grid specification: user-specified.
  | Specified grid contains     6 separate shells.
  | Check grid settings after all constraints further below.
  | Found free-atom valence shell :  1 s   1.000
  | No ionic wave fns used. Skipping ion_occ.
  | Found hydrogenic basis function :  2 s   2.100
  | Found hydrogenic basis function :  2 p   3.500
  | Found hydrogenic basis function :  1 s   0.850
  | Found hydrogenic basis function :  2 p   3.700
  | Found hydrogenic basis function :  2 s   1.200
  | Found hydrogenic basis function :  3 d   7.000
  Species H                   : Missing cutoff potential type.
  Defaulting to exp(1/x)/(1-x)^2 type cutoff potential.
  Species H : No 'logarithmic' tag. Using default grid for free atom:
  | Default logarithmic grid data [bohr] : 0.1000E-03 0.1000E+03 0.1012E+01
  Species H : On-site basis accuracy parameter (for Gram-Schmidt orthonormalisation) not specified.
  Using default value basis_acc =  0.1000000E-03.
  Species H                   : Using default innermost maximum threshold i_radial=  2 for radial functions.
  Species H                   : Default cutoff onset for free atom density etc. : 0.40000000E+01 AA.
  Species H                   : Basic radial grid will be enhanced according to radial_multiplier =   2, to contain    49 grid points.
 
  Reading configuration options for species C                   .
  | Found nuclear charge :   6.0000
  | Found atomic mass :    12.0107000000000      amu
  | Found l_max for Hartree potential  :   6
  | Found cutoff potl. onset [A], width [A], scale factor :    4.00000    2.00000    1.00000
  | Threshold for basis-dependent cutoff potential is   0.100000E-03
  | Found data for basic radial integration grid :    34 points, outermost radius =    7.000 A
  | Found multiplier for basic radial grid :   2
  | Found angular grid specification: user-specified.
  | Specified grid contains     6 separate shells.
  | Check grid settings after all constraints further below.
  | Found free-atom valence shell :  2 s   2.000
  | Found free-atom valence shell :  2 p   2.000
  | No ionic wave fns used. Skipping ion_occ.
  | No ionic wave fns used. Skipping ion_occ.
  | Found hydrogenic basis function :  2 p   1.700
  | Found hydrogenic basis function :  3 d   6.000
  | Found hydrogenic basis function :  2 s   4.900
  | Found hydrogenic basis function :  4 f   9.800
  | Found hydrogenic basis function :  3 p   5.200
  | Found hydrogenic basis function :  3 s   4.300
  | Found hydrogenic basis function :  5 g  14.400
  | Found hydrogenic basis function :  3 d   6.200
  Species C                   : Missing cutoff potential type.
  Defaulting to exp(1/x)/(1-x)^2 type cutoff potential.
  Species C : No 'logarithmic' tag. Using default grid for free atom:
  | Default logarithmic grid data [bohr] : 0.1000E-03 0.1000E+03 0.1012E+01
  Species C : On-site basis accuracy parameter (for Gram-Schmidt orthonormalisation) not specified.
  Using default value basis_acc =  0.1000000E-03.
  Species C                   : Using default innermost maximum threshold i_radial=  2 for radial functions.
  Species C                   : Default cutoff onset for free atom density etc. : 0.40000000E+01 AA.
  Species C                   : Basic radial grid will be enhanced according to radial_multiplier =   2, to contain    69 grid points.
 
  Finished reading input file 'control.in'. Consistency checks are next.
 
  MPI_IN_PLACE appears to work with this MPI implementation.
  | Keeping use_mpi_in_place .true. (see manual).
  Target number of points in a grid batch is not set. Defaulting to  100
  Method for grid partitioning is not set. Defaulting to parallel hash+maxmin partitioning.
  Batch size limit is not set. Defaulting to    200
  By default, will store active basis functions for each batch.
  If in need of memory, prune_basis_once .false. can be used to disable this option.
  communication_type for Hartree potential was not specified.
  Defaulting to calc_hartree .
  Pulay mixer: Number of initial linear mixing iterations not set.
  Defaulting to    0 iterations.
  Work space size for distributed Hartree potential not set.
  Defaulting to   0.200000E+03 MB.
  Algorithm-dependent basis array size parameters:
  | n_max_pulay                         :        5
  Presetting      1001 iterations before the initial mixing cycle
  is restarted anyway using the sc_init_iter criterion / keyword.
  Presetting a factor      1.000 between actual scf density residual
  and density convergence criterion sc_accuracy_rho below which sc_init_iter
  takes no effect.
  Calculation of forces was not defined in control.in. No forces will be calculated.
  Geometry relaxation not requested: no relaxation will be performed.
  No accuracy limit for integral partition fn. given. Defaulting to  0.1000E-14.
  No threshold value for u(r) in integrations given. Defaulting to  0.1000E-05.
  No accuracy for occupation numbers given. Defaulting to  0.1000E-12.
  No threshold value for occupation numbers given. Defaulting to  0.0000E+00.
  No accuracy for fermi level given. Defaulting to  0.1000E-19.
  Maximum # of iterations to find E_F not set. Defaulting to  200.
  Will not use alltoall communication since running on < 1024 CPUs.
  partition_type (choice of integration weights) for integrals was not specified.
  | Using a version of the partition function of Stratmann and coworkers ('stratmann_sparse').
  | At each grid point, the set of atoms used to build the partition table is smoothly restricted to
  | only those atoms whose free-atom density would be non-zero at that grid point.
  Partitioning for Hartree potential was not defined. Using partition_type for integrals.
  | Adjusted default value of keyword multip_moments_threshold to:       0.10000000E-11
  | This value may affect high angular momentum components of the Hartree potential in periodic systems.
  No q(lm)/r^(l+1) cutoff set for long-range Hartree potential.
  | Using default value of  0.100000E-09 .
  | Verify using the multipole_threshold keyword.
  Defaulting to new monopole extrapolation.
  Density update method: automatic selection selected.
 * Warning: use_local_index and/or load_balancing needs packed_matrix_format = index
 * Changing the default setting to packed_matrix_format = index
------------------------------------------------------------


------------------------------------------------------------
          Reading geometry description geometry.in.
------------------------------------------------------------
  Input structure read successfully.
  The structure contains      132 atoms,  and a total of        522.000 electrons.

  Input geometry:
  | No unit cell requested.
  | Atomic structure:
  |       Atom                x [A]            y [A]            z [A]
  |    1: Species H            41.99055600       69.90469700       29.79433200
  |    2: Species C            41.92125500       69.96808000       30.87977900
  |    3: Species C            41.81331800       71.21228500       31.48620900
  |    4: Species C            41.93385900       68.82336700       31.64423000
  |    5: Species H            41.79372200       72.11197700       30.87211500
  |    6: Species C            41.70424900       71.32267600       32.86636500
  |    7: Species C            41.83480800       68.91754900       33.00969300
  |    8: Species H            42.04891200       67.84976200       31.16703500
  |    9: Species C            41.51471200       72.65715000       33.52350200
  |   10: Species C            41.71669100       70.15588500       33.62527700
  |   11: Species H            41.87629800       68.01808900       33.62622700
  |   12: Species C            40.27230100       72.96065600       34.10608500
  |   13: Species C            42.55853800       73.59757000       33.57842400
  |   14: Species H            41.62705300       70.22331100       34.70781100
  |   15: Species C            39.14639000       71.97328500       34.03213300
  |   16: Species C            40.05981900       74.19955100       34.72998000
  |   17: Species C            42.32682800       74.86161700       34.15896000
  |   18: Species C            43.94718300       73.25074600       33.11508000
  |   19: Species C            38.44253500       71.80308700       32.85829600
  |   20: Species C            38.78089000       71.22374300       35.14105200
  |   21: Species C            38.73871600       74.48740600       35.37820400
  |   22: Species C            41.07569100       75.16875600       34.71986300
  |   23: Species C            43.41266600       75.88923200       34.16775200
  |   24: Species C            44.87515400       72.78906000       34.04092600
  |   25: Species C            44.36261300       73.43016700       31.80152900
  |   26: Species C            37.39256800       70.89396800       32.78916100
  |   27: Species H            38.70199200       72.39781300       31.98152000
  |   28: Species C            37.73431600       70.31462400       35.06336600
  |   29: Species H            39.32819700       71.35351500       36.07515600
  |   30: Species C            38.59151400       74.35046500       36.74017400
  |   31: Species C            37.63979000       74.86189700       34.64832000
  |   32: Species C            40.77450100       76.55549100       35.21259500
  |   33: Species C            43.92763100       76.38333700       32.97331900
  |   34: Species C            43.93474100       76.37299600       35.36326900
  |   35: Species H            44.56465700       72.61956500       35.07078000
  |   36: Species C            46.18736900       72.53194700       33.67249000
  |   37: Species H            43.65406000       73.79844600       31.05837300
  |   38: Species C            45.67854500       73.18032000       31.43237100
  |   39: Species H            36.83911200       70.78367900       31.85557400
  |   40: Species C            37.04904300       70.14750000       33.88651800
  |   41: Species H            37.46200200       69.72296600       35.93837100
  |   42: Species C            37.36800800       74.55811200       37.35768500
  |   43: Species H            39.45553600       74.06002000       37.34089800
  |   44: Species C            36.41951600       75.08491500       35.27534600
  |   45: Species H            37.72529300       74.98702100       33.56846700
  |   46: Species C            40.36149400       77.51938700       34.30891100
  |   47: Species C            40.87565200       76.91265500       36.54252700
  |   48: Species H            43.52010300       76.02842000       32.02939200
  |   49: Species C            44.94301900       77.32571300       32.97331900
  |   50: Species H            43.55508700       75.99035200       36.30817200
  |   51: Species C            44.93590900       77.33605400       35.36326900
  |   52: Species H            46.89831900       72.16003100       34.40975600
  |   53: Species C            46.59051900       72.73596100       32.36761100
  |   54: Species H            45.99343400       73.33806300       30.40126400
  |   55: Species H            36.24503100       69.41934100       33.82523600
  |   56: Species H            37.28310000       74.41837000       38.43581000
  |   57: Species C            36.28604800       74.92980800       36.61467200
  |   58: Species H            35.56387100       75.40369000       34.67881800
  |   59: Species H            40.25444400       77.25885000       33.25727700
  |   60: Species C            40.06773700       78.80970400       34.72263300
  |   61: Species C            40.57688500       78.20437000       36.95889800
  |   62: Species H            41.20842100       76.17343500       37.27235400
  |   63: Species H            45.35054700       77.68063000       32.02939200
  |   64: Species C            45.45798400       77.81981800       34.16775200
  |   65: Species H            45.31556300       77.71869800       36.30817200
  |   66: Species H            47.61640800       72.51909300       32.07078500
  |   67: Species H            35.31966900       75.10622700       37.08903300
  |   68: Species H            39.75182200       79.54978300       33.98670600
  |   69: Species C            40.17486600       79.14926100       36.04931300
  |   70: Species H            40.66785100       78.46524000       38.01225900
  |   71: Species C            46.54382200       78.84743300       34.15896000
  |   72: Species H            39.94465600       80.16267800       36.37954600
  |   73: Species C            46.31211200       80.11148000       33.57842400
  |   74: Species C            47.79495900       78.54029400       34.71986300
  |   75: Species C            44.92346700       80.45830400       33.11508000
  |   76: Species C            47.35593800       81.05190000       33.52350200
  |   77: Species C            48.09614900       77.15355900       35.21259500
  |   78: Species C            48.81083100       79.50950000       34.72998000
  |   79: Species C            44.50803700       80.27888300       31.80152900
  |   80: Species C            43.99549600       80.91999000       34.04092600
  |   81: Species C            47.16640100       82.38637400       32.86636500
  |   82: Species C            48.59834900       80.74839400       34.10608500
  |   83: Species C            47.99499800       76.79639500       36.54252700
  |   84: Species C            48.50915600       76.18966300       34.30891100
  |   85: Species C            50.13193400       79.22164400       35.37820400
  |   86: Species C            43.19210500       80.52873000       31.43237100
  |   87: Species H            45.21659000       79.91060400       31.05837300
  |   88: Species C            42.68328100       81.17710300       33.67249000
  |   89: Species H            44.30599300       81.08948500       35.07078000
  |   90: Species C            47.05733200       82.49676500       31.48620900
  |   91: Species C            47.15395900       83.55316500       33.62527700
  |   92: Species C            49.72426000       81.73576500       34.03213300
  |   93: Species H            47.66222900       77.53561500       37.27235400
  |   94: Species C            48.29376500       75.50468000       36.95889800
  |   95: Species C            48.80291300       74.89934600       34.72263300
  |   96: Species H            48.61620600       76.45020000       33.25727700
  |   97: Species C            51.23086000       78.84715300       34.64832000
  |   98: Species C            50.27913600       79.35858500       36.74017400
  |   99: Species H            42.87721600       80.37098700       30.40126400
  |  100: Species C            42.28013100       80.97308900       32.36761100
  |  101: Species H            41.97233100       81.54901900       34.40975600
  |  102: Species C            46.94939500       83.74097000       30.87977900
  |  103: Species H            47.07692800       81.59707300       30.87211500
  |  104: Species C            47.03584200       84.79150100       33.00969300
  |  105: Species H            47.24359700       83.48573900       34.70781100
  |  106: Species C            50.42811500       81.90596300       32.85829600
  |  107: Species C            50.08976100       82.48530700       35.14105200
  |  108: Species H            48.20279900       75.24381000       38.01225900
  |  109: Species C            48.69578400       74.55978900       36.04931300
  |  110: Species H            49.11882800       74.15926700       33.98670600
  |  111: Species H            51.14535700       78.72202900       33.56846700
  |  112: Species C            52.45113400       78.62413500       35.27534600
  |  113: Species H            49.41511400       79.64903000       37.34089800
  |  114: Species C            51.50264200       79.15093800       37.35768500
  |  115: Species H            41.25424200       81.18995700       32.07078500
  |  116: Species H            46.88009400       83.80435300       29.79433200
  |  117: Species C            46.93679100       84.88568300       31.64423000
  |  118: Species H            46.99435200       85.69096100       33.62622700
  |  119: Species H            50.16865800       81.31123700       31.98152000
  |  120: Species C            51.47808200       82.81508200       32.78916100
  |  121: Species H            49.54245300       82.35553500       36.07515600
  |  122: Species C            51.13633400       83.39442600       35.06336600
  |  123: Species H            48.92599400       73.54637200       36.37954600
  |  124: Species H            53.30677900       78.30536000       34.67881800
  |  125: Species C            52.58460200       78.77924200       36.61467200
  |  126: Species H            51.58755000       79.29068000       38.43581000
  |  127: Species H            46.82173800       85.85928800       31.16703500
  |  128: Species H            52.03153800       82.92537100       31.85557400
  |  129: Species C            51.82160700       83.56155000       33.88651800
  |  130: Species H            51.40864800       83.98608400       35.93837100
  |  131: Species H            53.55098100       78.60282300       37.08903300
  |  132: Species H            52.62561900       84.28970900       33.82523600
  |

  | The smallest distance between any two atoms is         1.08646505 AA.
  |
  | The first atom of this pair is atom number                     40 .
  | The second atom of this pair is atom number                    55 .

  Number of empty states per atom not set in control.in - providing a guess from actual geometry.
  | Total number of empty states used during s.c.f. cycle:      315
  If you use a very high smearing, use empty_states (per atom!) in control.in to increase this value.

  Structure-dependent array size parameters: 
  | Maximum number of distinct radial functions  :       18
  | Maximum number of basis functions            :     3852
  | Number of Kohn-Sham states (occupied + empty):      576
------------------------------------------------------------

------------------------------------------------------------
          Preparing all fixed parts of the calculation.
------------------------------------------------------------
  Determining machine precision:
    2.225073858507201E-308
  Setting up grids for atomic and cluster calculations.

  Creating wave function, potential, and density for free atoms.

  Species: H

  List of occupied orbitals and eigenvalues:
    n    l              occ      energy [Ha]    energy [eV]
    1    0           1.0000        -0.238386        -6.4868


  Species: C

  List of occupied orbitals and eigenvalues:
    n    l              occ      energy [Ha]    energy [eV]
    1    0           2.0000       -10.049212      -273.4530
    2    0           2.0000        -0.504761       -13.7352
    2    1           2.0000        -0.193631        -5.2690

  Creating fixed part of basis set: Ionic, confined, hydrogenic.
 
  H                    hydrogenic:
 
  List of hydrogenic basis orbitals: 
    n    l      effective z      eigenvalue [eV]  inner max. [A]     outer max. [A]     outer radius [A]   
    2    0         2.100000       -14.9965           0.193243           1.317208           5.373006
    2    1         3.500000       -41.6672           0.602369           0.602369           4.056063
    1    0         0.850000        -9.8292           0.624871           0.624871           5.373006
    2    1         3.700000       -46.5653           0.573622           0.573622           3.910002
    2    0         1.200000        -4.5995           0.334980           2.228188           5.505995
    3    2         7.000000       -74.0753           0.680699           0.680699           3.769201
 
 
  C                    hydrogenic:
 
  List of hydrogenic basis orbitals: 
    n    l      effective z      eigenvalue [eV]  inner max. [A]     outer max. [A]     outer radius [A]   
    2    1         1.700000        -9.8152           1.245706           1.245706           5.401630
    3    2         6.000000       -54.4226           0.792453           0.792453           4.178599
    2    0         4.900000       -81.6681           0.082559           0.562749           3.353238
    4    3         9.800000       -81.6681           0.863254           0.863254           4.028125
    3    1         5.200000       -40.8774           0.305389           1.215618           4.898362
    3    0         4.300000       -27.9508           0.091041           1.610311           5.401630
    5    4        14.400000      -112.8510           0.917666           0.917666           3.883070
    3    2         6.200000       -58.1113           0.763917           0.763917           4.077671
 

  Adding cutoff potential to free-atom effective potential.
  Creating atomic-like basis functions for current effective potential.

  Species H                   :

  List of atomic basis orbitals and eigenvalues:
    n    l      energy [Ha]    energy [eV]    outer radius [A]
    1    0        -0.238386        -6.4868       5.373006


  Species C                   :

  List of atomic basis orbitals and eigenvalues:
    n    l      energy [Ha]    energy [eV]    outer radius [A]
    1    0       -10.049212      -273.4530       1.934409
    2    0        -0.504761       -13.7352       5.271162
    2    1        -0.193631        -5.2690       5.401630

  Assembling full basis from fixed parts.
  | Species H :   atomic orbital   1 s accepted.
  | Species H :    hydro orbital   2 s accepted.
  | Species H :    hydro orbital   1 s accepted.
  | Species H :    hydro orbital   2 s accepted.
  | Species H :    hydro orbital   2 p accepted.
  | Species H :    hydro orbital   2 p accepted.
  | Species H :    hydro orbital   3 d accepted.
  | Species C :   atomic orbital   1 s accepted.
  | Species C :    hydro orbital   2 s accepted.
  | Species C :   atomic orbital   2 s accepted.
  | Species C :    hydro orbital   3 s accepted.
  | Species C :    hydro orbital   3 p accepted.
  | Species C :   atomic orbital   2 p accepted.
  | Species C :    hydro orbital   2 p accepted.
  | Species C :    hydro orbital   3 d accepted.
  | Species C :    hydro orbital   3 d accepted.
  | Species C :    hydro orbital   4 f accepted.
  | Species C :    hydro orbital   5 g accepted.
 
  Basis size parameters after reduction:
  | Total number of radial functions:       18
  | Total number of basis functions :     3852
 
  Per-task memory consumption for arrays in subroutine allocate_ext:
  |           4.502056MB.
  Testing on-site integration grid accuracy.
  |  Species  Function  <phi|h_atom|phi> (log., in eV)  <phi|h_atom|phi> (rad., in eV)
           1        1                 -6.4870767962                 -6.4871688290
           1        2                 13.5032046589                 13.5028982997
           1        3                 32.8195184817                 32.8119941656
           1        4                 33.8513856511                 33.7670005767 ***
           1        5                 28.8544614965                 28.8544615203
           1        6                 59.6326952547                 59.6327656460
           1        7                 60.2719308513                 60.2719305949
           2        8               -273.4529726040               -273.4529710464
           2        9                -10.7721037319                -10.7721022101
           2       10                 17.6044132601                 17.6044162063
           2       11                 53.7706460658                 53.7706913770
           2       12                 15.0973290362                 15.0973256030
           2       13                  3.8545134692                  3.8545724687
           2       14                 12.1156992592                 12.1182024431
           2       15                 29.4352039302                 29.4352041816
           2       16                 54.8741144708                 54.8740268729
           2       17                 59.3556032049                 59.3556031382
           2       18                 93.4551837154                 93.4551838009
 * Note: Onsite integrals marked "***" above are less accurate than
 * onsite_accuracy_threshold =    0.03000 eV. Usually, this is harmless.
 * When in doubt, tighten the "radial" and/or "radial_multiplier" flags to check.

  Preparing densities etc. for the partition functions (integrals / Hartree potential).

  Preparations completed.
  max(cpu_time)          :      0.212 s.
  Wall clock time (cpu1) :      0.233 s.
------------------------------------------------------------

------------------------------------------------------------
          Begin self-consistency loop: Initialization.

          Date     :  20210727, Time     :  231112.998
------------------------------------------------------------

  Initializing index lists of integration centers etc. from given atomic structure:
  | Number of centers in hartree potential         :       132
  | Number of centers in hartree multipole         :       132
  | Number of centers in electron density summation:       132
  | Number of centers in basis integrals           :       132
  | Number of centers in integrals                 :       132
  | Number of centers in hamiltonian               :       132
  * Using 56 tasks for Scalapack Eigenvalue solver.
  Detailed listing of tasks and assigned k-points:
  (for non-periodic systems, the "k-point" denotes an internal label only)
   Task     0 k-point     1 on d018
   Task     1 k-point     1 on d018
   Task     2 k-point     1 on d018
   Task     3 k-point     1 on d018
   Task     4 k-point     1 on d018
   Task     5 k-point     1 on d018
   Task     6 k-point     1 on d018
   Task     7 k-point     1 on d018
   Task     8 k-point     1 on d018
   Task     9 k-point     1 on d018
   Task    10 k-point     1 on d018
   Task    11 k-point     1 on d018
   Task    12 k-point     1 on d018
   Task    13 k-point     1 on d018
   Task    14 k-point     1 on d018
   Task    15 k-point     1 on d018
   Task    16 k-point     1 on d018
   Task    17 k-point     1 on d018
   Task    18 k-point     1 on d018
   Task    19 k-point     1 on d018
   Task    20 k-point     1 on d018
   Task    21 k-point     1 on d018
   Task    22 k-point     1 on d018
   Task    23 k-point     1 on d018
   Task    24 k-point     1 on d018
   Task    25 k-point     1 on d018
   Task    26 k-point     1 on d018
   Task    27 k-point     1 on d018
   Task    28 k-point     1 on d018
   Task    29 k-point     1 on d018
   Task    30 k-point     1 on d018
   Task    31 k-point     1 on d018
   Task    32 k-point     1 on d018
   Task    33 k-point     1 on d018
   Task    34 k-point     1 on d018
   Task    35 k-point     1 on d018
   Task    36 k-point     1 on d018
   Task    37 k-point     1 on d018
   Task    38 k-point     1 on d018
   Task    39 k-point     1 on d018
   Task    40 k-point     1 on d018
   Task    41 k-point     1 on d018
   Task    42 k-point     1 on d018
   Task    43 k-point     1 on d018
   Task    44 k-point     1 on d018
   Task    45 k-point     1 on d018
   Task    46 k-point     1 on d018
   Task    47 k-point     1 on d018
   Task    48 k-point     1 on d018
   Task    49 k-point     1 on d018
   Task    50 k-point     1 on d018
   Task    51 k-point     1 on d018
   Task    52 k-point     1 on d018
   Task    53 k-point     1 on d018
   Task    54 k-point     1 on d018
   Task    55 k-point     1 on d018
  Tasks:    56 split into      8 X      7 BLACS grid
  Calculating block size based on n_basis =         3852 max_nprow =            8 max_npcol =            7
  ScaLAPACK block size set to:           16
  Allocating        2.204 MB for ovlp
  Allocating        2.204 MB for ham
  Allocating        2.204 MB for eigenvec
  Required Scalapack workspace - INTEGER:            1 REAL:             1
  Partitioning the integration grid into batches with parallel hashing+maxmin method.
  | Number of batches:    18852
  | Maximal batch size:     200
  | Minimal batch size:      23
  | Average batch size:     116.188
  | Standard deviation of batch sizes:      30.688

  Integration load balanced across     56 MPI tasks.
  Work distribution over tasks is as follows:
  Task      0 has      39251 integration points.
  Task      1 has      39098 integration points.
  Task      2 has      39077 integration points.
  Task      3 has      39195 integration points.
  Task      4 has      39068 integration points.
  Task      5 has      39174 integration points.
  Task      6 has      39047 integration points.
  Task      7 has      39160 integration points.
  Task      8 has      39165 integration points.
  Task      9 has      39053 integration points.
  Task     10 has      39234 integration points.
  Task     11 has      38965 integration points.
  Task     12 has      39155 integration points.
  Task     13 has      39021 integration points.
  Task     14 has      39134 integration points.
  Task     15 has      39169 integration points.
  Task     16 has      39093 integration points.
  Task     17 has      39267 integration points.
  Task     18 has      39064 integration points.
  Task     19 has      39093 integration points.
  Task     20 has      39037 integration points.
  Task     21 has      39119 integration points.
  Task     22 has      39141 integration points.
  Task     23 has      39032 integration points.
  Task     24 has      39230 integration points.
  Task     25 has      39003 integration points.
  Task     26 has      39203 integration points.
  Task     27 has      38944 integration points.
  Task     28 has      39156 integration points.
  Task     29 has      39193 integration points.
  Task     30 has      39079 integration points.
  Task     31 has      39180 integration points.
  Task     32 has      39080 integration points.
  Task     33 has      39140 integration points.
  Task     34 has      39074 integration points.
  Task     35 has      39179 integration points.
  Task     36 has      39239 integration points.
  Task     37 has      38986 integration points.
  Task     38 has      39160 integration points.
  Task     39 has      39046 integration points.
  Task     40 has      39153 integration points.
  Task     41 has      39019 integration points.
  Task     42 has      39218 integration points.
  Task     43 has      39201 integration points.
  Task     44 has      39080 integration points.
  Task     45 has      39188 integration points.
  Task     46 has      38989 integration points.
  Task     47 has      39200 integration points.
  Task     48 has      38958 integration points.
  Task     49 has      39228 integration points.
  Task     50 has      39200 integration points.
  Task     51 has      38981 integration points.
  Task     52 has      39172 integration points.
  Task     53 has      39028 integration points.
  Task     54 has      39079 integration points.
  Task     55 has      38986 integration points.
  Initializing partition tables, free-atom densities, potentials, etc. across the integration grid (initialize_grid_storage).
  | initialize_grid_storage: Actual outermost partition radius vs. multipole_radius_free
  | (-- VB: in principle, multipole_radius_free should be larger, hence this output)
  | Species        1: Confinement radius =              6.000000000000000 AA, multipole_radius_free =              6.071692442739658 AA.
  | Species        1: outer_partition_radius set to              6.071692442739658 AA .
  | Species        2: Confinement radius =              6.000000000000000 AA, multipole_radius_free =              6.029870734432609 AA.
  | Species        2: outer_partition_radius set to              6.029870734432609 AA .
  | The sparse table of interatomic distances needs    190.9720 kbyte instead of   139.3920 kbyte of memory.
  | Using the partition_type stratmann_smoother will reduce your memory usage.
  | Net number of integration points:  2190384
  | of which are non-zero points    :  1683225
  Renormalizing the initial density to the exact electron count on the 3D integration grid.
  | Initial density: Formal number of electrons (from input files) :     522.0000000000
  | Integrated number of electrons on 3D grid     :     522.0000072858
  | Charge integration error                      :       0.0000072858
  | Normalization factor for density and gradient :       0.9999999860
  Obtaining max. number of non-zero basis functions in each batch (get_n_compute_maxes).
  | Maximal number of non-zero basis functions:     1287
  Selecting the method for density update.
  Loop over occupied states selected for charge density update.
  Hamiltonian matrix size:
  | Size of matrix non-packed:               7420878
  | Size of matrix packed:         4470157
  Allocating       17.750 MB for KS_eigenvector
  use_local_index: Max. local matrix size =      2440949
  Task:     0 matrix size:     418396
  Task:     1 matrix size:     625941
  Task:     2 matrix size:     815198
  Task:     3 matrix size:     823614
  Task:     4 matrix size:    1193103
  Task:     5 matrix size:    1774476
  Task:     6 matrix size:    1855227
  Task:     7 matrix size:     500156
  Task:     8 matrix size:     850356
  Task:     9 matrix size:    1345458
  Task:    10 matrix size:     653670
  Task:    11 matrix size:     473367
  Task:    12 matrix size:    1534163
  Task:    13 matrix size:    1060506
  Task:    14 matrix size:     442612
  Task:    15 matrix size:    1381436
  Task:    16 matrix size:    2003635
  Task:    17 matrix size:     884310
  Task:    18 matrix size:     642323
  Task:    19 matrix size:    1677265
  Task:    20 matrix size:    1315920
  Task:    21 matrix size:    1315062
  Task:    22 matrix size:    2398456
  Task:    23 matrix size:    2148197
  Task:    24 matrix size:     945731
  Task:    25 matrix size:    1407767
  Task:    26 matrix size:     834533
  Task:    27 matrix size:     573998
  Task:    28 matrix size:    1611674
  Task:    29 matrix size:     848981
  Task:    30 matrix size:     595430
  Task:    31 matrix size:    1533752
  Task:    32 matrix size:    2216382
  Task:    33 matrix size:     944795
  Task:    34 matrix size:     445185
  Task:    35 matrix size:    1013637
  Task:    36 matrix size:     843667
  Task:    37 matrix size:     592478
  Task:    38 matrix size:    2440949
  Task:    39 matrix size:    2017603
  Task:    40 matrix size:    1706498
  Task:    41 matrix size:    1226304
  Task:    42 matrix size:    1865887
  Task:    43 matrix size:    1380526
  Task:    44 matrix size:    1424299
  Task:    45 matrix size:     941536
  Task:    46 matrix size:     465197
  Task:    47 matrix size:     526006
  Task:    48 matrix size:     690759
  Task:    49 matrix size:    1323233
  Task:    50 matrix size:     817309
  Task:    51 matrix size:     469808
  Task:    52 matrix size:    1441991
  Task:    53 matrix size:     968232
  Task:    54 matrix size:     692661
  Task:    55 matrix size:     513165
  Integrating Hamiltonian matrix: batch-based integration.
  Time summed over all CPUs for integration: real work      624.830 s, elapsed     1142.086 s
  Time get_set_sparse_local_matrix_scalapack:     0.053814 s
  Start compute_balanced_batch_distribution
  Done load balancing, time needed:      0.024 s
  Integrating overlap matrix with loadbalancing
  Time summed over all CPUs for integration: real work      183.338 s, elapsed      208.449 s
  Time get_set_full_local_matrix_scalapack:     0.065094 s

  Updating Kohn-Sham eigenvalues and eigenvectors using ELSI and the ELPA eigensolver.
  Overlap matrix is not singular
  | Lowest and highest eigenvalues :  0.14E+02,  0.83E-04
  Finished singularity check of overlap matrix
  | Time :     0.622 s
  Finished Cholesky decomposition
  | Time :     0.156 s
  Finished transformation to standard eigenproblem
  | Time :     0.221 s
  Starting ELPA eigensolver
  Finished solving standard eigenproblem
  | Time :     0.690 s
  Finished back-transformation of eigenvectors
  | Time :     0.035 s

  Obtaining occupation numbers and chemical potential using ELSI.
  | Chemical potential (Fermi level):    -9.96158226 eV
  Writing Kohn-Sham eigenvalues.

  State    Occupation    Eigenvalue [Ha]    Eigenvalue [eV]
      1       2.00000         -10.180893         -277.03620
      2       2.00000         -10.180893         -277.03620
      3       2.00000         -10.177310         -276.93870
      4       2.00000         -10.177310         -276.93870
      5       2.00000         -10.176919         -276.92806
      6       2.00000         -10.176919         -276.92806
      7       2.00000         -10.176422         -276.91454
      8       2.00000         -10.176422         -276.91454
      9       2.00000         -10.175854         -276.89908
     10       2.00000         -10.175854         -276.89908
     11       2.00000         -10.175825         -276.89830
     12       2.00000         -10.175825         -276.89830
     13       2.00000         -10.174213         -276.85441
     14       2.00000         -10.174213         -276.85441
     15       2.00000         -10.174139         -276.85242
     16       2.00000         -10.174139         -276.85242
     17       2.00000         -10.174083         -276.85089
     18       2.00000         -10.174083         -276.85089
     19       2.00000         -10.174041         -276.84974
     20       2.00000         -10.174041         -276.84974
     21       2.00000         -10.173996         -276.84850
     22       2.00000         -10.173995         -276.84850
     23       2.00000         -10.173932         -276.84678
     24       2.00000         -10.173932         -276.84678
     25       2.00000         -10.173910         -276.84618
     26       2.00000         -10.173910         -276.84618
     27       2.00000         -10.173880         -276.84535
     28       2.00000         -10.173880         -276.84535
     29       2.00000         -10.173401         -276.83231
     30       2.00000         -10.173401         -276.83231
     31       2.00000         -10.172862         -276.81767
     32       2.00000         -10.172862         -276.81767
     33       2.00000         -10.172811         -276.81627
     34       2.00000         -10.172811         -276.81627
     35       2.00000         -10.172674         -276.81254
     36       2.00000         -10.172674         -276.81254
     37       2.00000         -10.172645         -276.81174
     38       2.00000         -10.172645         -276.81174
     39       2.00000         -10.172627         -276.81126
     40       2.00000         -10.172627         -276.81126
     41       2.00000         -10.172211         -276.79994
     42       2.00000         -10.171792         -276.78855
     43       2.00000         -10.171792         -276.78855
     44       2.00000         -10.171775         -276.78808
     45       2.00000         -10.171714         -276.78642
     46       2.00000         -10.171714         -276.78642
     47       2.00000         -10.171626         -276.78403
     48       2.00000         -10.171626         -276.78403
     49       2.00000         -10.171509         -276.78083
     50       2.00000         -10.171396         -276.77776
     51       2.00000         -10.171396         -276.77776
     52       2.00000         -10.171292         -276.77494
     53       2.00000         -10.171292         -276.77494
     54       2.00000         -10.171088         -276.76938
     55       2.00000         -10.170472         -276.75263
     56       2.00000         -10.170472         -276.75263
     57       2.00000         -10.167564         -276.67350
     58       2.00000         -10.167564         -276.67350
     59       2.00000         -10.167401         -276.66905
     60       2.00000         -10.167401         -276.66905
     61       2.00000         -10.165283         -276.61143
     62       2.00000         -10.165282         -276.61141
     63       2.00000         -10.165110         -276.60672
     64       2.00000         -10.165110         -276.60672
     65       2.00000         -10.164911         -276.60131
     66       2.00000         -10.164911         -276.60131
     67       2.00000         -10.161113         -276.49796
     68       2.00000         -10.161113         -276.49795
     69       2.00000         -10.160748         -276.48803
     70       2.00000         -10.160748         -276.48802
     71       2.00000         -10.160411         -276.47884
     72       2.00000         -10.160411         -276.47884
     73       2.00000         -10.160106         -276.47054
     74       2.00000         -10.160106         -276.47054
     75       2.00000         -10.160045         -276.46889
     76       2.00000         -10.160045         -276.46888
     77       2.00000         -10.158964         -276.43949
     78       2.00000         -10.158964         -276.43949
     79       2.00000          -1.019392          -27.73906
     80       2.00000          -1.018154          -27.70538
     81       2.00000          -1.009374          -27.46645
     82       2.00000          -1.008145          -27.43302
     83       2.00000          -1.006133          -27.37827
     84       2.00000          -1.005139          -27.35122
     85       2.00000          -1.002623          -27.28277
     86       2.00000          -1.002284          -27.27353
     87       2.00000          -1.000169          -27.21598
     88       2.00000          -0.999163          -27.18860
     89       2.00000          -0.996840          -27.12540
     90       2.00000          -0.984290          -26.78390
     91       2.00000          -0.979788          -26.66139
     92       2.00000          -0.935723          -25.46233
     93       2.00000          -0.930188          -25.31171
     94       2.00000          -0.930153          -25.31074
     95       2.00000          -0.923757          -25.13670
     96       2.00000          -0.903096          -24.57448
     97       2.00000          -0.903060          -24.57351
     98       2.00000          -0.900800          -24.51201
     99       2.00000          -0.896961          -24.40756
    100       2.00000          -0.892160          -24.27691
    101       2.00000          -0.890501          -24.23175
    102       2.00000          -0.889436          -24.20278
    103       2.00000          -0.889345          -24.20032
    104       2.00000          -0.889328          -24.19984
    105       2.00000          -0.887638          -24.15385
    106       2.00000          -0.887320          -24.14521
    107       2.00000          -0.887213          -24.14228
    108       2.00000          -0.887163          -24.14094
    109       2.00000          -0.886731          -24.12918
    110       2.00000          -0.886468          -24.12201
    111       2.00000          -0.886171          -24.11393
    112       2.00000          -0.885693          -24.10092
    113       2.00000          -0.884484          -24.06804
    114       2.00000          -0.862431          -23.46794
    115       2.00000          -0.853205          -23.21688
    116       2.00000          -0.853108          -23.21424
    117       2.00000          -0.844170          -22.97103
    118       2.00000          -0.787239          -21.42187
    119       2.00000          -0.782471          -21.29211
    120       2.00000          -0.781651          -21.26980
    121       2.00000          -0.772879          -21.03110
    122       2.00000          -0.760053          -20.68208
    123       2.00000          -0.758596          -20.64246
    124       2.00000          -0.758430          -20.63793
    125       2.00000          -0.755853          -20.56780
    126       2.00000          -0.754746          -20.53768
    127       2.00000          -0.753881          -20.51415
    128       2.00000          -0.753686          -20.50885
    129       2.00000          -0.752795          -20.48459
    130       2.00000          -0.752305          -20.47126
    131       2.00000          -0.751453          -20.44808
    132       2.00000          -0.751291          -20.44367
    133       2.00000          -0.750229          -20.41478
    134       2.00000          -0.748567          -20.36955
    135       2.00000          -0.746710          -20.31901
    136       2.00000          -0.745666          -20.29062
    137       2.00000          -0.738715          -20.10145
    138       2.00000          -0.738511          -20.09590
    139       2.00000          -0.735809          -20.02237
    140       2.00000          -0.715902          -19.48069
    141       2.00000          -0.712824          -19.39693
    142       2.00000          -0.711802          -19.36913
    143       2.00000          -0.709010          -19.29314
    144       2.00000          -0.680828          -18.52629
    145       2.00000          -0.678139          -18.45310
    146       2.00000          -0.666652          -18.14053
    147       2.00000          -0.665078          -18.09769
    148       2.00000          -0.658597          -17.92134
    149       2.00000          -0.658155          -17.90931
    150       2.00000          -0.657157          -17.88216
    151       2.00000          -0.651112          -17.71767
    152       2.00000          -0.648085          -17.63530
    153       2.00000          -0.645741          -17.57151
    154       2.00000          -0.645114          -17.55445
    155       2.00000          -0.643313          -17.50543
    156       2.00000          -0.641159          -17.44681
    157       2.00000          -0.639574          -17.40369
    158       2.00000          -0.638988          -17.38774
    159       2.00000          -0.635438          -17.29114
    160       2.00000          -0.635173          -17.28393
    161       2.00000          -0.634613          -17.26871
    162       2.00000          -0.634216          -17.25789
    163       2.00000          -0.632574          -17.21323
    164       2.00000          -0.630919          -17.16818
    165       2.00000          -0.628901          -17.11326
    166       2.00000          -0.627194          -17.06681
    167       2.00000          -0.623226          -16.95883
    168       2.00000          -0.621776          -16.91938
    169       2.00000          -0.612477          -16.66634
    170       2.00000          -0.598893          -16.29672
    171       2.00000          -0.592188          -16.11426
    172       2.00000          -0.586641          -15.96330
    173       2.00000          -0.585964          -15.94488
    174       2.00000          -0.585690          -15.93743
    175       2.00000          -0.578516          -15.74223
    176       2.00000          -0.578407          -15.73926
    177       2.00000          -0.577522          -15.71516
    178       2.00000          -0.576807          -15.69571
    179       2.00000          -0.576291          -15.68169
    180       2.00000          -0.576159          -15.67810
    181       2.00000          -0.574479          -15.63237
    182       2.00000          -0.574293          -15.62731
    183       2.00000          -0.573714          -15.61154
    184       2.00000          -0.573418          -15.60349
    185       2.00000          -0.572427          -15.57652
    186       2.00000          -0.567591          -15.44493
    187       2.00000          -0.566721          -15.42127
    188       2.00000          -0.566300          -15.40981
    189       2.00000          -0.566148          -15.40566
    190       2.00000          -0.565900          -15.39893
    191       2.00000          -0.565259          -15.38149
    192       2.00000          -0.564428          -15.35887
    193       2.00000          -0.564244          -15.35385
    194       2.00000          -0.563868          -15.34363
    195       2.00000          -0.563496          -15.33351
    196       2.00000          -0.562196          -15.29813
    197       2.00000          -0.561288          -15.27343
    198       2.00000          -0.550767          -14.98714
    199       2.00000          -0.549927          -14.96426
    200       2.00000          -0.546506          -14.87117
    201       2.00000          -0.523047          -14.23285
    202       2.00000          -0.516711          -14.06041
    203       2.00000          -0.515794          -14.03546
    204       2.00000          -0.515156          -14.01811
    205       2.00000          -0.513329          -13.96840
    206       2.00000          -0.513124          -13.96282
    207       2.00000          -0.510606          -13.89429
    208       2.00000          -0.509395          -13.86135
    209       2.00000          -0.507967          -13.82250
    210       2.00000          -0.507840          -13.81904
    211       2.00000          -0.507205          -13.80175
    212       2.00000          -0.507038          -13.79721
    213       2.00000          -0.506650          -13.78664
    214       2.00000          -0.506616          -13.78573
    215       2.00000          -0.506282          -13.77664
    216       2.00000          -0.505100          -13.74446
    217       2.00000          -0.503854          -13.71057
    218       2.00000          -0.502373          -13.67027
    219       2.00000          -0.500852          -13.62888
    220       2.00000          -0.499718          -13.59802
    221       2.00000          -0.499292          -13.58644
    222       2.00000          -0.499211          -13.58423
    223       2.00000          -0.497889          -13.54825
    224       2.00000          -0.497769          -13.54497
    225       2.00000          -0.496907          -13.52152
    226       2.00000          -0.496824          -13.51927
    227       2.00000          -0.495917          -13.49458
    228       2.00000          -0.495290          -13.47751
    229       2.00000          -0.493857          -13.43854
    230       2.00000          -0.491970          -13.38718
    231       2.00000          -0.489980          -13.33303
    232       2.00000          -0.488402          -13.29011
    233       2.00000          -0.488026          -13.27985
    234       2.00000          -0.481038          -13.08972
    235       2.00000          -0.477555          -12.99494
    236       2.00000          -0.419746          -11.42187
    237       2.00000          -0.418107          -11.37727
    238       2.00000          -0.417464          -11.35978
    239       2.00000          -0.415313          -11.30124
    240       2.00000          -0.414463          -11.27810
    241       2.00000          -0.411340          -11.19314
    242       2.00000          -0.410212          -11.16244
    243       2.00000          -0.409133          -11.13307
    244       2.00000          -0.408644          -11.11978
    245       2.00000          -0.407747          -11.09536
    246       2.00000          -0.406785          -11.06919
    247       2.00000          -0.406391          -11.05848
    248       2.00000          -0.404422          -11.00488
    249       2.00000          -0.404024          -10.99404
    250       2.00000          -0.402753          -10.95948
    251       2.00000          -0.401510          -10.92565
    252       2.00000          -0.401462          -10.92434
    253       2.00000          -0.400706          -10.90375
    254       2.00000          -0.399889          -10.88153
    255       2.00000          -0.399835          -10.88007
    256       2.00000          -0.398640          -10.84755
    257       2.00000          -0.394239          -10.72779
    258       2.00000          -0.390264          -10.61962
    259       2.00000          -0.389293          -10.59320
    260       2.00000          -0.386206          -10.50920
    261       2.00000          -0.375967          -10.23057
    262       0.00000          -0.237749           -6.46947
    263       0.00000          -0.229752           -6.25188
    264       0.00000          -0.227224           -6.18309
    265       0.00000          -0.225629           -6.13967
    266       0.00000          -0.223178           -6.07297
    267       0.00000          -0.218878           -5.95597
    268       0.00000          -0.217545           -5.91970
    269       0.00000          -0.217025           -5.90554
    270       0.00000          -0.215853           -5.87365
    271       0.00000          -0.213553           -5.81106
    272       0.00000          -0.213504           -5.80973
    273       0.00000          -0.212301           -5.77700
    274       0.00000          -0.209351           -5.69673
    275       0.00000          -0.209268           -5.69448
    276       0.00000          -0.207486           -5.64598
    277       0.00000          -0.206454           -5.61789
    278       0.00000          -0.206408           -5.61665
    279       0.00000          -0.205736           -5.59836
    280       0.00000          -0.204782           -5.57240
    281       0.00000          -0.203793           -5.54548
    282       0.00000          -0.200351           -5.45184
    283       0.00000          -0.199272           -5.42245
    284       0.00000          -0.198723           -5.40753
    285       0.00000          -0.197634           -5.37789
    286       0.00000          -0.196314           -5.34196
    287       0.00000          -0.187819           -5.11081
    288       0.00000          -0.108019           -2.93934
    289       0.00000          -0.101463           -2.76095
    290       0.00000          -0.093446           -2.54280
    291       0.00000          -0.089582           -2.43766
    292       0.00000          -0.082026           -2.23205
    293       0.00000          -0.080493           -2.19033
    294       0.00000          -0.077649           -2.11293
    295       0.00000          -0.076966           -2.09435
    296       0.00000          -0.076768           -2.08897
    297       0.00000          -0.075325           -2.04971
    298       0.00000          -0.073402           -1.99738
    299       0.00000          -0.069988           -1.90448
    300       0.00000          -0.069561           -1.89285
    301       0.00000          -0.068534           -1.86491
    302       0.00000          -0.068166           -1.85488
    303       0.00000          -0.067984           -1.84994
    304       0.00000          -0.067800           -1.84494
    305       0.00000          -0.066790           -1.81745
    306       0.00000          -0.066410           -1.80711
    307       0.00000          -0.062606           -1.70361
    308       0.00000          -0.059698           -1.62446
    309       0.00000          -0.059554           -1.62056
    310       0.00000          -0.059321           -1.61421
    311       0.00000          -0.057009           -1.55130
    312       0.00000          -0.056606           -1.54032
    313       0.00000          -0.052729           -1.43482
    314       0.00000          -0.050249           -1.36734
    315       0.00000          -0.049270           -1.34070
    316       0.00000          -0.043460           -1.18262
    317       0.00000          -0.042788           -1.16432
    318       0.00000          -0.041172           -1.12035
    319       0.00000          -0.041065           -1.11744
    320       0.00000          -0.037566           -1.02222
    321       0.00000          -0.036945           -1.00533
    322       0.00000          -0.033032           -0.89884
    323       0.00000          -0.031878           -0.86745
    324       0.00000          -0.028590           -0.77797
[...]
    406       0.00000           0.195641            5.32367
    407       0.00000           0.196581            5.34923
    408       0.00000           0.197180            5.36555
    409       0.00000           0.197268            5.36793
    410       0.00000           0.198422            5.39933
    411       0.00000           0.198953            5.41379
    412       0.00000           0.199037            5.41607
    413       0.00000           0.200201            5.44775
    414       0.00000           0.202034            5.49762
    415       0.00000           0.202978            5.52330
    416       0.00000           0.205125            5.58173
    417       0.00000           0.206429            5.61721
    418       0.00000           0.207926            5.65796
    419       0.00000           0.208444            5.67206
    420       0.00000           0.210830            5.73697
    421       0.00000           0.211848            5.76469
    422       0.00000           0.212392            5.77948
    423       0.00000           0.213287            5.80384
    424       0.00000           0.213367            5.80602
    425       0.00000           0.216356            5.88735
    426       0.00000           0.216858            5.90100
    427       0.00000           0.218810            5.95411
    428       0.00000           0.219806            5.98121
    429       0.00000           0.221628            6.03081
    430       0.00000           0.222730            6.06079
    431       0.00000           0.222786            6.06233
    432       0.00000           0.223418            6.07952
    433       0.00000           0.224973            6.12182
    434       0.00000           0.226273            6.15719
    435       0.00000           0.227598            6.19325
    436       0.00000           0.227678            6.19544
    437       0.00000           0.227811            6.19907
    438       0.00000           0.229436            6.24328
    439       0.00000           0.230939            6.28418
    440       0.00000           0.231690            6.30461
    441       0.00000           0.231858            6.30917
    442       0.00000           0.233525            6.35454
    443       0.00000           0.234311            6.37593
    444       0.00000           0.235216            6.40055
    445       0.00000           0.235911            6.41946
    446       0.00000           0.235932            6.42004
    447       0.00000           0.236843            6.44483
    448       0.00000           0.237519            6.46322
    449       0.00000           0.238859            6.49967
    450       0.00000           0.239432            6.51528
    451       0.00000           0.239794            6.52513
    452       0.00000           0.240193            6.53597
    453       0.00000           0.241650            6.57562
    454       0.00000           0.242080            6.58733
    455       0.00000           0.243511            6.62628
    456       0.00000           0.244469            6.65234
    457       0.00000           0.244908            6.66429
    458       0.00000           0.245893            6.69110
    459       0.00000           0.246565            6.70938
    460       0.00000           0.247254            6.72813
    461       0.00000           0.249318            6.78429
    462       0.00000           0.249783            6.79695
    463       0.00000           0.250945            6.82855
    464       0.00000           0.252101            6.86001
    465       0.00000           0.252456            6.86967
    466       0.00000           0.254130            6.91524
    467       0.00000           0.256559            6.98133
    468       0.00000           0.257459            7.00581
    469       0.00000           0.258305            7.02885
    470       0.00000           0.260252            7.08183
    471       0.00000           0.261253            7.10906
    472       0.00000           0.261949            7.12800
    473       0.00000           0.262661            7.14736
    474       0.00000           0.265614            7.22772
    475       0.00000           0.266741            7.25840
    476       0.00000           0.268022            7.29324
    477       0.00000           0.268110            7.29563
    478       0.00000           0.270627            7.36412
    479       0.00000           0.271256            7.38125
    480       0.00000           0.272068            7.40335
    481       0.00000           0.272382            7.41188
    482       0.00000           0.276393            7.52104
    483       0.00000           0.276992            7.53733
    484       0.00000           0.278716            7.58426
    485       0.00000           0.278742            7.58497
    486       0.00000           0.280340            7.62845
    487       0.00000           0.281240            7.65294
    488       0.00000           0.281724            7.66611
    489       0.00000           0.283055            7.70232
    490       0.00000           0.283350            7.71036
    491       0.00000           0.284205            7.73360
    492       0.00000           0.284888            7.75219
    493       0.00000           0.287020            7.81020
    494       0.00000           0.289176            7.86888
    495       0.00000           0.289608            7.88064
    496       0.00000           0.289794            7.88570
    497       0.00000           0.290806            7.91323
    498       0.00000           0.290933            7.91669
    499       0.00000           0.291617            7.93531
    500       0.00000           0.291925            7.94369
    501       0.00000           0.293186            7.97800
    502       0.00000           0.294346            8.00955
    503       0.00000           0.294546            8.01500
    504       0.00000           0.297940            8.10735
    505       0.00000           0.299053            8.13765
    506       0.00000           0.299870            8.15989
    507       0.00000           0.300520            8.17756
    508       0.00000           0.301798            8.21233
    509       0.00000           0.302490            8.23118
    510       0.00000           0.305920            8.32451
    511       0.00000           0.308430            8.39280
    512       0.00000           0.309275            8.41580
    513       0.00000           0.309783            8.42963
    514       0.00000           0.312403            8.50091
    515       0.00000           0.313497            8.53069
    516       0.00000           0.315652            8.58932
    517       0.00000           0.316088            8.60120
    518       0.00000           0.318011            8.65352
    519       0.00000           0.318594            8.66939
    520       0.00000           0.321619            8.75169
    521       0.00000           0.323455            8.80165
    522       0.00000           0.325109            8.84666
    523       0.00000           0.325500            8.85730
    524       0.00000           0.326518            8.88500
    525       0.00000           0.327729            8.91795
    526       0.00000           0.328446            8.93746
    527       0.00000           0.331438            9.01887
    528       0.00000           0.332265            9.04138
    529       0.00000           0.332971            9.06061
    530       0.00000           0.334949            9.11443
    531       0.00000           0.337177            9.17507
    532       0.00000           0.337621            9.18713
    533       0.00000           0.339347            9.23409
    534       0.00000           0.341175            9.28383
    535       0.00000           0.342216            9.31217
    536       0.00000           0.344374            9.37088
    537       0.00000           0.345058            9.38949
    538       0.00000           0.347771            9.46332
    539       0.00000           0.347835            9.46506
    540       0.00000           0.349000            9.49678
    541       0.00000           0.351261            9.55829
    542       0.00000           0.352706            9.59763
    543       0.00000           0.352744            9.59864
    544       0.00000           0.353725            9.62534
    545       0.00000           0.358370            9.75175
    546       0.00000           0.359843            9.79182
    547       0.00000           0.360800            9.81786
    548       0.00000           0.362025            9.85121
    549       0.00000           0.362393            9.86122
    550       0.00000           0.364772            9.92596
    551       0.00000           0.365261            9.93926
    552       0.00000           0.366410            9.97051
    553       0.00000           0.366991            9.98633
    554       0.00000           0.369780           10.06223
    555       0.00000           0.369994           10.06804
    556       0.00000           0.372170           10.12727
    557       0.00000           0.372521           10.13681
    558       0.00000           0.373727           10.16962
    559       0.00000           0.374511           10.19095
    560       0.00000           0.375537           10.21889
    561       0.00000           0.376726           10.25122
    562       0.00000           0.379228           10.31931
    563       0.00000           0.379846           10.33613
    564       0.00000           0.381864           10.39105
    565       0.00000           0.383539           10.43664
    566       0.00000           0.385612           10.49303
    567       0.00000           0.388367           10.56801
    568       0.00000           0.388943           10.58367
    569       0.00000           0.391506           10.65341
    570       0.00000           0.391928           10.66490
    571       0.00000           0.395208           10.75415
    572       0.00000           0.397464           10.81556
    573       0.00000           0.400259           10.89161
    574       0.00000           0.400280           10.89218
    575       0.00000           0.402829           10.96153
    576       0.00000           0.403445           10.97831

  Highest occupied state (VBM) at     -5.30401386 eV
  | Occupation number:      2.00000000

  Lowest unoccupied state (CBM) at    -1.78974154 eV
  | Occupation number:      0.00000000

  Overall HOMO-LUMO gap:      3.51427233 eV.

  Total energy components:
  | Sum of eigenvalues            :       -1705.69455843 Ha      -46414.31046911 eV
  | XC energy correction          :        -440.69884435 Ha      -11992.02570238 eV
  | XC potential correction       :         566.13974283 Ha       15405.44622277 eV
  | Free-atom electrostatic energy:       -1307.37166860 Ha      -35575.39315864 eV
  | Hartree energy correction     :        -115.84806109 Ha       -3152.38613393 eV
  | Entropy correction            :           0.00000000 Ha           0.00000000 eV
  | ---------------------------
  | Total energy                  :       -3003.47338965 Ha      -81728.66924129 eV
  | Total energy, T -> 0          :       -3003.47338965 Ha      -81728.66924129 eV  <-- do not rely on this value for anything but (periodic) metals
  | Electronic free energy        :       -3003.47338965 Ha      -81728.66924129 eV

  Derived energy quantities:
  | Kinetic energy                :        2996.60295428 Ha       81541.71518270 eV
  | Electrostatic energy          :       -5559.37749958 Ha     -151278.35872161 eV
  | Energy correction for multipole
  | error in Hartree potential    :          -0.36339751 Ha          -9.88854941 eV
  | Sum of eigenvalues per atom                           :        -351.62356416 eV
  | Total energy (T->0) per atom                          :        -619.15658516 eV  <-- do not rely on this value for anything but (periodic) metals
  | Electronic free energy per atom                       :        -619.15658516 eV
  End evaluation of scaled ZORA corrections.
  | Time for scaled ZORA corrections           :       23.858 s          23.870 s
------------------------------------------------------------

  Energy and forces in a compact form:
  | Total energy uncorrected      :         -0.817286692412854E+05 eV
  | Total energy corrected        :         -0.817286692412854E+05 eV  <-- do not rely on this value for anything but (periodic) metals
  | Electronic free energy        :         -0.817286692412854E+05 eV

  ------------------------------------ 
  Start decomposition of the XC Energy 
  ------------------------------------ 
  X and C from original XC functional choice 
  Hartree-Fock Energy :          0.000000000 Ha              0.000000000 eV
  X Energy            :       -423.259133430 Ha         -11517.467022899 eV
  C Energy            :        -17.439710922 Ha           -474.558679477 eV
  Total XC Energy     :       -440.698844352 Ha         -11992.025702375 eV
  ------------------------------------ 
  LDA X and C from self-consistent density 
  X Energy LDA        :       -383.327681104 Ha         -10430.876920028 eV
  C Energy LDA        :        -33.609681270 Ha           -914.565959970 eV
  ------------------------------------ 
  End decomposition of the XC Energy 
  ------------------------------------ 

------------------------------------------------------------

------------------------------------------------------------------------------
  Final output of selected total energy values:

  The following output summarizes some interesting total energy values
  at the end of a run (AFTER all relaxation, molecular dynamics, etc.).

  | Total energy of the DFT / Hartree-Fock s.c.f. calculation      :         -81728.669241285 eV
  | Final zero-broadening corrected energy (caution - metals only) :         -81728.669241285 eV
  | For reference only, the value of 1 Hartree used in FHI-aims is :             27.211384500 eV

  Before relying on these values, please be sure to understand exactly which
  total energy value is referred to by a given number. Different objects may
  all carry the same name 'total energy'. Definitions:

  Total energy of the DFT / Hartree-Fock s.c.f. calculation:
  | Note that this energy does not include ANY quantities calculated after the
  | s.c.f. cycle, in particular not ANY RPA, MP2, etc. many-body perturbation terms.
  | Scalar relativistic effects have been included in the 'scaled ZORA' approximation.

  Final zero-broadening corrected energy:
  | For metallic systems only, a broadening of the occupation numbers at the Fermi
  | level can be extrapolated back to zero broadening by an electron-gas inspired
  | formula. For all systems that are not real metals, this value can be
  | meaningless and should be avoided.

------------------------------------------------------------------------------
  Methods described in the following list of references were used in this FHI-aims run.
  If you publish the results, please make sure to cite these reference if they apply.
  FHI-aims is an academic code, and for our developers (often, Ph.D. students
  and postdocs), scientific credit in the community is essential.
  Thank you for helping us!

  For any use of FHI-aims, please cite:

    Volker Blum, Ralf Gehrke, Felix Hanke, Paula Havu, Ville Havu,
    Xinguo Ren, Karsten Reuter, and Matthias Scheffler
    'Ab initio molecular simulations with numeric atom-centered orbitals'
    Computer Physics Communications 180, 2175-2196 (2009)
    http://dx.doi.org/10.1016/j.cpc.2009.06.022


  The scalable eigensolver library ELPA was used in your run.
  ELPA is essential especially for large systems on hundreds or thousands of CPUs.
  For ELPA, please cite:

    Andreas Marek, Volker Blum, Rainer Johanni, Ville Havu, Bruno Lang,
    Thomas Auckenthaler, Alexander Heinecke, Hans-Joachim Bungartz, and Hermann Lederer,
    'The ELPA Library - Scalable Parallel Eigenvalue Solutions
    for Electronic Structure Theory and Computational Science'
    The Journal of Physics: Condensed Matter 26, 213201 (2014).
    http://dx.doi.org/10.1088/0953-8984/26/21/213201


  The ELSI infrastructure was used in your run to solve the Kohn-Sham electronic structure.
  Please check out http://elsi-interchange.org to learn more.
  If scalability is important for your project, please acknowledge ELSI by citing:

    V. W-z. Yu, F. Corsetti, A. Garcia, W. P. Huhn, M. Jacquelin, W. Jia,
    B. Lange, L. Lin, J. Lu, W. Mi, A. Seifitokaldani, A. Vazquez-Mayagoitia,
    C. Yang, H. Yang, and V. Blum
    'ELSI: A unified software interface for Kohn-Sham electronic structure solvers'
    Computer Physics Communications 222, 267-285 (2018).
    http://dx.doi.org/10.1016/j.cpc.2017.09.007


  For the real-space grid partitioning and parallelization used in this calculation, please cite:

    Ville Havu, Volker Blum, Paula Havu, and Matthias Scheffler,
    'Efficient O(N) integration for all-electron electronic structure calculation'
    'using numerically tabulated basis functions'
    Journal of Computational Physics 228, 8367-8379 (2009).
    http://dx.doi.org/10.1016/j.jcp.2009.08.008

  Of course, there are many other important community references, e.g., those cited in the
  above references. Our list is limited to references that describe implementations in the
  FHI-aims code. The reason is purely practical (length of this list) - please credit others as well.

------------------------------------------------------------
          Leaving FHI-aims.
          Date     :  20210727, Time     :  231946.439

          Computational steps:
          | Number of self-consistency cycles          :           18
          | Number of SCF (re)initializations          :            1

          Detailed time accounting                     :  max(cpu_time)    wall_clock(cpu1)
          | Total time                                 :      513.602 s         513.984 s
          | Preparation time                           :        0.212 s           0.233 s
          | Boundary condition initalization           :        0.001 s           0.005 s
          | Grid partitioning                          :        3.980 s           3.985 s
          | Preloading free-atom quantities on grid    :        0.014 s           0.017 s
          | Free-atom superposition energy             :        0.320 s           0.321 s
          | Total time for integrations                :      253.569 s         253.574 s
          | Total time for solution of K.-S. equations :       22.104 s          22.157 s
          | Total time for density update              :      147.155 s         147.089 s
          | Total time for mixing                      :        0.436 s           0.438 s
          | Total time for Hartree multipole update    :        0.439 s           0.447 s
          | Total time for Hartree multipole sum       :       56.256 s          56.259 s
          | Total time for total energy evaluation     :        0.010 s           0.036 s
          | Total time for scaled ZORA corrections     :       23.858 s          23.870 s

          Partial memory accounting:
          | Residual value for overall tracked memory usage across tasks :     0.000000 MB (should be 0.000000 MB)
          | Peak values for overall tracked memory usage (after allocating zora_vector2):
          |   Minimum:       62.616 MB (on task 52)
          |   Maximum:       85.124 MB (on task 39)
          |   Average:       71.809 MB
          | Largest tracked array allocation (+KS_eigenvector):
          |   Minimum:       17.750 MB (on task  1)
          |   Maximum:       19.528 MB (on task 39)
          |   Average:       17.861 MB
          Note:  These values currently only include a subset of arrays which are explicitly tracked.
          The "true" memory usage will be greater.

          Have a nice day.
------------------------------------------------------------
