  MPI-parallelism will be employed.
------------------------------------------------------------
          Invoking FHI-aims ...
          Version 180607
          Git rev. (modified): 6724847 Fix JSON memory corruption in scf_solver
          Compiled on 2018/06/27 at 16:00:31 on host coe.psc.edu.

          When using FHI-aims, please cite the following reference:

          Volker Blum, Ralf Gehrke, Felix Hanke, Paula Havu,
          Ville Havu, Xinguo Ren, Karsten Reuter, and Matthias Scheffler,
          'Ab Initio Molecular Simulations with Numeric Atom-Centered Orbitals',
          Computer Physics Communications 180, 2175-2196 (2009)

          For any questions about FHI-aims, please visit the aimsclub website
          with its forums and wiki. Contributions to both the forums and the
          wiki are warmly encouraged - they are for you, and everyone is welcome there.

------------------------------------------------------------



  Date     :  20210620, Time     :  161313.229
  Time zero on CPU 1             :   0.390696000000000E+00  s.
  Internal wall clock time zero  :           393437593.229  s.

  FHI-aims created a unique identifier for this run for later identification
  aims_uuid : 12464FC7-AA9D-4CEB-A12E-CD94251807E8

  Using       56 parallel tasks.
  Task        0 on host d030 reporting.
  Task        1 on host d030 reporting.
  Task        2 on host d030 reporting.
  Task        3 on host d030 reporting.
  Task        4 on host d030 reporting.
  Task        5 on host d030 reporting.
  Task        6 on host d030 reporting.
  Task        7 on host d030 reporting.
  Task        8 on host d030 reporting.
  Task        9 on host d030 reporting.
  Task       10 on host d030 reporting.
  Task       11 on host d030 reporting.
  Task       12 on host d030 reporting.
  Task       13 on host d030 reporting.
  Task       14 on host d030 reporting.
  Task       15 on host d030 reporting.
  Task       16 on host d030 reporting.
  Task       17 on host d030 reporting.
  Task       18 on host d030 reporting.
  Task       19 on host d030 reporting.
  Task       20 on host d030 reporting.
  Task       21 on host d030 reporting.
  Task       22 on host d030 reporting.
  Task       23 on host d030 reporting.
  Task       24 on host d030 reporting.
  Task       25 on host d030 reporting.
  Task       26 on host d030 reporting.
  Task       27 on host d030 reporting.
  Task       28 on host d030 reporting.
  Task       29 on host d030 reporting.
  Task       30 on host d030 reporting.
  Task       31 on host d030 reporting.
  Task       32 on host d030 reporting.
  Task       33 on host d030 reporting.
  Task       34 on host d030 reporting.
  Task       35 on host d030 reporting.
  Task       36 on host d030 reporting.
  Task       37 on host d030 reporting.
  Task       38 on host d030 reporting.
  Task       39 on host d030 reporting.
  Task       40 on host d030 reporting.
  Task       41 on host d030 reporting.
  Task       42 on host d030 reporting.
  Task       43 on host d030 reporting.
  Task       44 on host d030 reporting.
  Task       45 on host d030 reporting.
  Task       46 on host d030 reporting.
  Task       47 on host d030 reporting.
  Task       48 on host d030 reporting.
  Task       49 on host d030 reporting.
  Task       50 on host d030 reporting.
  Task       51 on host d030 reporting.
  Task       52 on host d030 reporting.
  Task       53 on host d030 reporting.
  Task       54 on host d030 reporting.
  Task       55 on host d030 reporting.

  Performing system and environment tests:
  *** Environment variable OMP_NUM_THREADS is not set
  *** For performance reasons you might want to set it to 1
  | Stacksize not measured: no C compiler
  | Checking for scalapack...
  | Testing pdtran()...
  | All pdtran() tests passed.

  Obtaining array dimensions for all initial allocations:
  
  -----------------------------------------------------------------------
  Parsing control.in (first pass over file, find array dimensions only).
  The contents of control.in will be repeated verbatim below
  unless switched off by setting 'verbatim_writeout .false.' .
  in the first line of control.in .
  -----------------------------------------------------------------------
  
  #===============================================================================
  # FHI-aims file: ./Runs/es/control.in
  # Created using the Atomic Simulation Environment (ASE)
  # Mon Jan 13 16:04:38 2020
  #===============================================================================
  xc                                 pbe
  relativistic                       zora scalar 1e-12
  occupation_type                    gaussian 0.0001
  load_balancing                     .true.
  KS_method                          scalapack_fast
  mixer                              pulay
  n_max_pulay                        5
  charge_mix_param                   0.4
  sc_accuracy_etot                   1e-6
  sc_accuracy_eev                    1e-4
  sc_accuracy_rho                    1e-6
  sc_iter_limit                      100
  prodbas_threshold                  1e-4
  basis_threshold                    1e-5
  override_illconditioning           .true.
  use_logsbt                         .true.
  spin                               none
  charge                             0
  #===============================================================================
  
  ################################################################################
  #
  #  FHI-aims code project
  # Volker Blum, Fritz Haber Institute Berlin, 2009
  #
  #  Suggested "tight" defaults for H atom (to be pasted into control.in file)
  #
  ################################################################################
    species        H
  #     global species definitions
      nucleus             1
      mass                1.00794
  #
      l_hartree           6
  #
      cut_pot             4.0  2.0  1.0
      basis_dep_cutoff    1e-4
  #
      radial_base         24 7.0
      radial_multiplier   2
      angular_grids       specified
        division   0.1930   50
        division   0.3175  110
        division   0.4293  194
        division   0.5066  302
        division   0.5626  434
  #      division   0.5922  590
  #      division   0.6227  974
  #      division   0.6868 1202
  #      outer_grid  770
        outer_grid  434
  ################################################################################
  #
  #  Definition of "minimal" basis
  #
  ################################################################################
  #     valence basis states
      valence      1  s   1.
  #     ion occupancy
      ion_occ      1  s   0.5
  ################################################################################
  #
  #  Suggested additional basis functions. For production calculations,
  #  uncomment them one after another (the most important basis functions are
  #  listed first).
  #
  #  Basis constructed for dimers: 0.5 A, 0.7 A, 1.0 A, 1.5 A, 2.5 A
  #
  ################################################################################
  #  "First tier" - improvements: -1014.90 meV to -62.69 meV
       hydro 2 s 2.1
       hydro 2 p 3.5
  #  "Second tier" - improvements: -12.89 meV to -1.83 meV
       hydro 1 s 0.85
       hydro 2 p 3.7
       hydro 2 s 1.2
       hydro 3 d 7
  #  "Third tier" - improvements: -0.25 meV to -0.12 meV
  #     hydro 4 f 11.2
  #     hydro 3 p 4.8
  #     hydro 4 d 9
  #     hydro 3 s 3.2
  ################################################################################
  #
  # For methods that use the localized form of the "resolution of identity" for
  # the two-electron Coulomb operator (RI_method LVL), particularly Hartree-Fock and
  # hybrid density functional calculations, the highest accuracy can be obtained by
  # uncommenting the line beginning with "for_aux"  below, thus adding an extra g radial
  # function to the construction of the product basis set for the expansion.
  # See Ref. New J. Phys. 17, 093020 (2015) for more information, particularly Figs. 1 and 6.
  #
  ################################################################################
  #
  # for_aux hydro 5 g 6.0
  ################################################################################
  #
  #  FHI-aims code project
  # Volker Blum, Fritz Haber Institute Berlin, 2009
  #
  #  Suggested "tight" defaults for C atom (to be pasted into control.in file)
  #
  ################################################################################
    species        C
  #     global species definitions
      nucleus             6
      mass                12.0107
  #
      l_hartree           6
  #
      cut_pot             4.0  2.0  1.0
      basis_dep_cutoff    1e-4
  #
      radial_base         34 7.0
      radial_multiplier   2
      angular_grids specified
        division   0.2187   50
        division   0.4416  110
        division   0.6335  194
        division   0.7727  302
        division   0.8772  434
  #      division   0.9334  590
  #      division   0.9924  770
  #      division   1.0230  974
  #      division   1.5020 1202
  #     outer_grid  974
        outer_grid  434
  ################################################################################
  #
  #  Definition of "minimal" basis
  #
  ################################################################################
  #     valence basis states
      valence      2  s   2.
      valence      2  p   2.
  #     ion occupancy
      ion_occ      2  s   1.
      ion_occ      2  p   1.
  ################################################################################
  #
  #  Suggested additional basis functions. For production calculations,
  #  uncomment them one after another (the most important basis functions are
  #  listed first).
  #
  #  Constructed for dimers: 1.0 A, 1.25 A, 1.5 A, 2.0 A, 3.0 A
  #
  ################################################################################
  #  "First tier" - improvements: -1214.57 meV to -155.61 meV
       hydro 2 p 1.7
       hydro 3 d 6
       hydro 2 s 4.9
  #  "Second tier" - improvements: -67.75 meV to -5.23 meV
       hydro 4 f 9.8
       hydro 3 p 5.2
       hydro 3 s 4.3
       hydro 5 g 14.4
       hydro 3 d 6.2
  #  "Third tier" - improvements: -2.43 meV to -0.60 meV
  #     hydro 2 p 5.6
  #     hydro 2 s 1.4
  #     hydro 3 d 4.9
  #     hydro 4 f 11.2
  #  "Fourth tier" - improvements: -0.39 meV to -0.18 meV
  #     hydro 2 p 2.1
  #     hydro 5 g 16.4
  #     hydro 4 d 13.2
  #     hydro 3 s 13.6
  #     hydro 4 f 17.6
  #  Further basis functions - improvements: -0.08 meV and below
  #     hydro 3 s 2
  #     hydro 3 p 6
  #     hydro 4 d 20
  ################################################################################
  #
  # For methods that use the localized form of the "resolution of identity" for
  # the two-electron Coulomb operator (RI_method LVL), particularly Hartree-Fock and
  # hybrid density functional calculations, the highest accuracy can be obtained by
  # uncommenting the line beginning with "for_aux"  below, thus adding an extra g radial
  # function to the construction of the product basis set for the expansion.
  # See Ref. New J. Phys. 17, 093020 (2015) for more information, particularly Figs. 1 and 6.
  #
  ################################################################################
  #
  # for_aux hydro 5 g 6.0
  
  -----------------------------------------------------------------------
  Completed first pass over input file control.in .
  -----------------------------------------------------------------------
  
  
  -----------------------------------------------------------------------
  Parsing geometry.in (first pass over file, find array dimensions only).
  The contents of geometry.in will be repeated verbatim below
  unless switched off by setting 'verbatim_writeout .false.' .
  in the first line of geometry.in .
  -----------------------------------------------------------------------
  
  #=======================================================
  # FHI-aims file: geometry.in
  # Created using the Atomic Simulation Environment (ASE)
  # Sun Jun 20 15:47:01 2021
  #=======================================================
  atom 9.0828629999999997 45.4279379999999975 63.9247980000000027 H
  atom 8.7087289999999999 46.2364570000000015 63.3015329999999992 C
  atom 8.0885140000000000 45.9565279999999987 62.0394849999999991 C
  atom 8.7389829999999993 47.5441270000000031 63.7877310000000008 C
  atom 7.8339990000000004 44.6105299999999971 61.5765609999999981 C
  atom 7.7610099999999997 47.0040830000000014 61.1653609999999972 C
  atom 8.3161780000000007 48.6135840000000030 62.9808480000000017 C
  atom 9.3365080000000003 47.7820620000000034 65.0963299999999947 C
  atom 7.3990919999999996 44.3987399999999965 60.2395149999999973 C
  atom 7.9466960000000002 43.4885060000000010 62.4558570000000017 C
  atom 7.2822339999999999 46.8117900000000020 59.8283139999999989 C
  atom 7.8336209999999999 48.3209349999999986 61.7032829999999990 C
  atom 8.3604249999999993 49.9638940000000034 63.4851499999999973 C
  atom 9.7007709999999996 46.9428929999999980 65.6831310000000030 H
  atom 9.3716790000000003 49.0530529999999985 65.5540809999999965 C
  atom 7.0428459999999999 43.0636840000000021 59.8309009999999972 C
  atom 7.2818560000000003 45.4893629999999973 59.3395300000000034 C
  atom 7.5696510000000004 42.2486170000000030 62.0756909999999991 C
  atom 8.3067240000000009 43.6495019999999982 63.4704089999999965 H
  atom 6.7263089999999996 47.9659509999999969 59.1300499999999971 C
  atom 7.3646770000000004 49.4586010000000016 60.9584680000000034 C
  atom 7.8740860000000001 51.0463290000000001 62.7196459999999973 C
  atom 8.9102990000000002 50.2117160000000027 64.7859909999999957 C
  atom 9.7986439999999995 49.2651759999999967 66.5383750000000020 H
  atom 6.6279830000000004 42.8528379999999984 58.5016120000000015 C
  atom 7.0957910000000002 42.0062209999999965 60.7541610000000034 C
  atom 7.0557040000000004 45.2130319999999983 57.9171389999999988 C
  atom 7.6281929999999996 41.4119150000000005 62.7705929999999981 H
  atom 6.2091859999999999 47.8005330000000015 58.1889449999999968 H
  atom 6.7539170000000004 49.2000760000000028 59.6705579999999998 C
  atom 7.3960660000000003 50.7480159999999998 61.3955300000000008 C
  atom 7.9171980000000000 52.3503120000000024 63.2704990000000009 C
  atom 8.9322330000000001 51.4845960000000034 65.2592590000000001 C
  atom 6.1855120000000001 41.5693449999999984 58.1369630000000015 C
  atom 6.5826010000000004 43.9399629999999988 57.5550759999999997 C
  atom 6.6567239999999996 40.6940489999999997 60.3377890000000008 C
  atom 7.3529540000000004 46.1218739999999983 56.9059489999999997 C
  atom 6.2775610000000004 50.0317530000000019 59.1491880000000023 H
  atom 7.0097930000000002 51.5466279999999983 60.7650229999999993 H
  atom 7.5171590000000004 53.1784170000000032 62.6865430000000003 H
  atom 8.4519450000000003 52.5616050000000001 64.5144430000000000 C
  atom 9.3528450000000003 51.6731849999999966 66.2471730000000036 H
  atom 5.7831289999999997 41.3145069999999990 56.7843999999999980 C
  atom 6.2626609999999996 40.4910339999999991 59.0550509999999989 C
  atom 6.2668210000000002 43.6416699999999977 56.1895820000000015 C
  atom 6.7044509999999997 39.8767380000000031 61.0567419999999998 H
  atom 7.0916309999999996 45.8151750000000035 55.5663160000000005 C
  atom 7.8585050000000001 47.0536349999999999 57.1436179999999965 H
  atom 8.5047010000000007 53.5679230000000004 64.9292640000000034 H
  atom 5.4602760000000004 40.3101509999999976 56.5138869999999969 H
  atom 5.8092230000000002 42.3099619999999987 55.8559669999999997 C
  atom 5.9340979999999997 39.5057169999999971 58.7214359999999971 H
  atom 6.5186890000000002 44.6206290000000010 55.2145980000000023 C
  atom 7.3625970000000001 46.5360149999999990 54.7969330000000028 H
  atom 5.5267600000000003 42.1113349999999969 54.8217599999999976 H
  atom 6.2855030000000003 44.4020769999999985 54.1721160000000026 H
  
  -----------------------------------------------------------------------
  Completed first pass over input file geometry.in .
  -----------------------------------------------------------------------
  

  Basic array size parameters:
  | Number of species                 :        2
  | Number of atoms                   :       56
  | Max. basis fn. angular momentum   :        4
  | Max. atomic/ionic basis occupied n:        2
  | Max. number of basis fn. types    :        2
  | Max. radial fns per species/type  :        8
  | Max. logarithmic grid size        :     1277
  | Max. radial integration grid size :       69
  | Max. angular integration grid size:      434
  | Max. angular grid division number :        8
  | Radial grid for Hartree potential :     1277
  | Number of spin channels           :        1

------------------------------------------------------------
          Reading file control.in.
------------------------------------------------------------
  XC: Using PBE gradient-corrected functionals.
  Scalar relativistic treatment of kinetic energy: ZORA.
  Threshold value for ZORA:   0.100000E-11
  Occupation type: Gaussian broadening, width =   0.100000E-03 eV.
  Since 'load_balancing .true.' is present in control.in, automatically turning on 'use_local_index .true.'.
  Using load balancing for integrations.
  Kohn-Sham electronic structure solved by the ELSI library.
  Using pulay charge density mixing.
  Pulay mixing - number of memorized iterations:    5
  Charge density mixing - mixing parameter:     0.4000
  Convergence accuracy of total energy:  0.1000E-05
  Convergence accuracy of sum of eigenvalues:  0.1000E-03
  Convergence accuracy of self-consistent charge density:  0.1000E-05
  Maximum number of s.-c. iterations  :   100
  * Ignoring prodbas_threshold
  Threshold for basis singularities:  0.1000E-04
  override_illconditioning: Explicitly overriding any built-in checks for an ill-conditioned overlap matrix.
  *** WARNING: If you use this flag, you should really know what you are doing.
  *** DO NOT keep this flag set by default in all your control.in files.
  Using 1D integrations for auxiliary 2-center integrals.
  Spin treatment: No spin polarisation.
  Charge =   0.000000E+00: Neutral system requested explicitly.
 
  Reading configuration options for species H                   .
  | Found nuclear charge :   1.0000
  | Found atomic mass :    1.00794000000000      amu
  | Found l_max for Hartree potential  :   6
  | Found cutoff potl. onset [A], width [A], scale factor :    4.00000    2.00000    1.00000
  | Threshold for basis-dependent cutoff potential is   0.100000E-03
  | Found data for basic radial integration grid :    24 points, outermost radius =    7.000 A
  | Found multiplier for basic radial grid :   2
  | Found angular grid specification: user-specified.
  | Specified grid contains     6 separate shells.
  | Check grid settings after all constraints further below.
  | Found free-atom valence shell :  1 s   1.000
  | No ionic wave fns used. Skipping ion_occ.
  | Found hydrogenic basis function :  2 s   2.100
  | Found hydrogenic basis function :  2 p   3.500
  | Found hydrogenic basis function :  1 s   0.850
  | Found hydrogenic basis function :  2 p   3.700
  | Found hydrogenic basis function :  2 s   1.200
  | Found hydrogenic basis function :  3 d   7.000
  Species H                   : Missing cutoff potential type.
  Defaulting to exp(1/x)/(1-x)^2 type cutoff potential.
  Species H : No 'logarithmic' tag. Using default grid for free atom:
  | Default logarithmic grid data [bohr] : 0.1000E-03 0.1000E+03 0.1012E+01
  Species H : On-site basis accuracy parameter (for Gram-Schmidt orthonormalisation) not specified.
  Using default value basis_acc =  0.1000000E-03.
  Species H                   : Using default innermost maximum threshold i_radial=  2 for radial functions.
  Species H                   : Default cutoff onset for free atom density etc. : 0.40000000E+01 AA.
  Species H                   : Basic radial grid will be enhanced according to radial_multiplier =   2, to contain    49 grid points.
 
  Reading configuration options for species C                   .
  | Found nuclear charge :   6.0000
  | Found atomic mass :    12.0107000000000      amu
  | Found l_max for Hartree potential  :   6
  | Found cutoff potl. onset [A], width [A], scale factor :    4.00000    2.00000    1.00000
  | Threshold for basis-dependent cutoff potential is   0.100000E-03
  | Found data for basic radial integration grid :    34 points, outermost radius =    7.000 A
  | Found multiplier for basic radial grid :   2
  | Found angular grid specification: user-specified.
  | Specified grid contains     6 separate shells.
  | Check grid settings after all constraints further below.
  | Found free-atom valence shell :  2 s   2.000
  | Found free-atom valence shell :  2 p   2.000
  | No ionic wave fns used. Skipping ion_occ.
  | No ionic wave fns used. Skipping ion_occ.
  | Found hydrogenic basis function :  2 p   1.700
  | Found hydrogenic basis function :  3 d   6.000
  | Found hydrogenic basis function :  2 s   4.900
  | Found hydrogenic basis function :  4 f   9.800
  | Found hydrogenic basis function :  3 p   5.200
  | Found hydrogenic basis function :  3 s   4.300
  | Found hydrogenic basis function :  5 g  14.400
  | Found hydrogenic basis function :  3 d   6.200
  Species C                   : Missing cutoff potential type.
  Defaulting to exp(1/x)/(1-x)^2 type cutoff potential.
  Species C : No 'logarithmic' tag. Using default grid for free atom:
  | Default logarithmic grid data [bohr] : 0.1000E-03 0.1000E+03 0.1012E+01
  Species C : On-site basis accuracy parameter (for Gram-Schmidt orthonormalisation) not specified.
  Using default value basis_acc =  0.1000000E-03.
  Species C                   : Using default innermost maximum threshold i_radial=  2 for radial functions.
  Species C                   : Default cutoff onset for free atom density etc. : 0.40000000E+01 AA.
  Species C                   : Basic radial grid will be enhanced according to radial_multiplier =   2, to contain    69 grid points.
 
  Finished reading input file 'control.in'. Consistency checks are next.
 
  MPI_IN_PLACE appears to work with this MPI implementation.
  | Keeping use_mpi_in_place .true. (see manual).
  Target number of points in a grid batch is not set. Defaulting to  100
  Method for grid partitioning is not set. Defaulting to parallel hash+maxmin partitioning.
  Batch size limit is not set. Defaulting to    200
  By default, will store active basis functions for each batch.
  If in need of memory, prune_basis_once .false. can be used to disable this option.
  communication_type for Hartree potential was not specified.
  Defaulting to calc_hartree .
  Pulay mixer: Number of initial linear mixing iterations not set.
  Defaulting to    0 iterations.
  Work space size for distributed Hartree potential not set.
  Defaulting to   0.200000E+03 MB.
  Algorithm-dependent basis array size parameters:
  | n_max_pulay                         :        5
  Presetting      1001 iterations before the initial mixing cycle
  is restarted anyway using the sc_init_iter criterion / keyword.
  Presetting a factor      1.000 between actual scf density residual
  and density convergence criterion sc_accuracy_rho below which sc_init_iter
  takes no effect.
  Calculation of forces was not defined in control.in. No forces will be calculated.
  Geometry relaxation not requested: no relaxation will be performed.
  No accuracy limit for integral partition fn. given. Defaulting to  0.1000E-14.
  No threshold value for u(r) in integrations given. Defaulting to  0.1000E-05.
  No accuracy for occupation numbers given. Defaulting to  0.1000E-12.
  No threshold value for occupation numbers given. Defaulting to  0.0000E+00.
  No accuracy for fermi level given. Defaulting to  0.1000E-19.
  Maximum # of iterations to find E_F not set. Defaulting to  200.
  Will not use alltoall communication since running on < 1024 CPUs.
  partition_type (choice of integration weights) for integrals was not specified.
  | Using a version of the partition function of Stratmann and coworkers ('stratmann_sparse').
  | At each grid point, the set of atoms used to build the partition table is smoothly restricted to
  | only those atoms whose free-atom density would be non-zero at that grid point.
  Partitioning for Hartree potential was not defined. Using partition_type for integrals.
  | Adjusted default value of keyword multip_moments_threshold to:       0.10000000E-11
  | This value may affect high angular momentum components of the Hartree potential in periodic systems.
  No q(lm)/r^(l+1) cutoff set for long-range Hartree potential.
  | Using default value of  0.100000E-09 .
  | Verify using the multipole_threshold keyword.
  Defaulting to new monopole extrapolation.
  Density update method: automatic selection selected.
 * Warning: use_local_index and/or load_balancing needs packed_matrix_format = index
 * Changing the default setting to packed_matrix_format = index
------------------------------------------------------------


------------------------------------------------------------
          Reading geometry description geometry.in.
------------------------------------------------------------
  Input structure read successfully.
  The structure contains       56 atoms,  and a total of        246.000 electrons.

  Input geometry:
  | No unit cell requested.
  | Atomic structure:
  |       Atom                x [A]            y [A]            z [A]
  |    1: Species H             9.08286300       45.42793800       63.92479800
  |    2: Species C             8.70872900       46.23645700       63.30153300
  |    3: Species C             8.08851400       45.95652800       62.03948500
  |    4: Species C             8.73898300       47.54412700       63.78773100
  |    5: Species C             7.83399900       44.61053000       61.57656100
  |    6: Species C             7.76101000       47.00408300       61.16536100
  |    7: Species C             8.31617800       48.61358400       62.98084800
  |    8: Species C             9.33650800       47.78206200       65.09633000
  |    9: Species C             7.39909200       44.39874000       60.23951500
  |   10: Species C             7.94669600       43.48850600       62.45585700
  |   11: Species C             7.28223400       46.81179000       59.82831400
  |   12: Species C             7.83362100       48.32093500       61.70328300
  |   13: Species C             8.36042500       49.96389400       63.48515000
  |   14: Species H             9.70077100       46.94289300       65.68313100
  |   15: Species C             9.37167900       49.05305300       65.55408100
  |   16: Species C             7.04284600       43.06368400       59.83090100
  |   17: Species C             7.28185600       45.48936300       59.33953000
  |   18: Species C             7.56965100       42.24861700       62.07569100
  |   19: Species H             8.30672400       43.64950200       63.47040900
  |   20: Species C             6.72630900       47.96595100       59.13005000
  |   21: Species C             7.36467700       49.45860100       60.95846800
  |   22: Species C             7.87408600       51.04632900       62.71964600
  |   23: Species C             8.91029900       50.21171600       64.78599100
  |   24: Species H             9.79864400       49.26517600       66.53837500
  |   25: Species C             6.62798300       42.85283800       58.50161200
  |   26: Species C             7.09579100       42.00622100       60.75416100
  |   27: Species C             7.05570400       45.21303200       57.91713900
  |   28: Species H             7.62819300       41.41191500       62.77059300
  |   29: Species H             6.20918600       47.80053300       58.18894500
  |   30: Species C             6.75391700       49.20007600       59.67055800
  |   31: Species C             7.39606600       50.74801600       61.39553000
  |   32: Species C             7.91719800       52.35031200       63.27049900
  |   33: Species C             8.93223300       51.48459600       65.25925900
  |   34: Species C             6.18551200       41.56934500       58.13696300
  |   35: Species C             6.58260100       43.93996300       57.55507600
  |   36: Species C             6.65672400       40.69404900       60.33778900
  |   37: Species C             7.35295400       46.12187400       56.90594900
  |   38: Species H             6.27756100       50.03175300       59.14918800
  |   39: Species H             7.00979300       51.54662800       60.76502300
  |   40: Species H             7.51715900       53.17841700       62.68654300
  |   41: Species C             8.45194500       52.56160500       64.51444300
  |   42: Species H             9.35284500       51.67318500       66.24717300
  |   43: Species C             5.78312900       41.31450700       56.78440000
  |   44: Species C             6.26266100       40.49103400       59.05505100
  |   45: Species C             6.26682100       43.64167000       56.18958200
  |   46: Species H             6.70445100       39.87673800       61.05674200
  |   47: Species C             7.09163100       45.81517500       55.56631600
  |   48: Species H             7.85850500       47.05363500       57.14361800
  |   49: Species H             8.50470100       53.56792300       64.92926400
  |   50: Species H             5.46027600       40.31015100       56.51388700
  |   51: Species C             5.80922300       42.30996200       55.85596700
  |   52: Species H             5.93409800       39.50571700       58.72143600
  |   53: Species C             6.51868900       44.62062900       55.21459800
  |   54: Species H             7.36259700       46.53601500       54.79693300
  |   55: Species H             5.52676000       42.11133500       54.82176000
  |   56: Species H             6.28550300       44.40207700       54.17211600
  |

  | The smallest distance between any two atoms is         1.08639170 AA.
  |
  | The first atom of this pair is atom number                     37 .
  | The second atom of this pair is atom number                    48 .

  Number of empty states per atom not set in control.in - providing a guess from actual geometry.
  | Total number of empty states used during s.c.f. cycle:      141
  If you use a very high smearing, use empty_states (per atom!) in control.in to increase this value.

  Structure-dependent array size parameters: 
  | Maximum number of distinct radial functions  :       18
  | Maximum number of basis functions            :     1752
  | Number of Kohn-Sham states (occupied + empty):      264
------------------------------------------------------------

------------------------------------------------------------
          Preparing all fixed parts of the calculation.
------------------------------------------------------------
  Determining machine precision:
    2.225073858507201E-308
  Setting up grids for atomic and cluster calculations.

  Creating wave function, potential, and density for free atoms.

  Species: H

  List of occupied orbitals and eigenvalues:
    n    l              occ      energy [Ha]    energy [eV]
    1    0           1.0000        -0.238386        -6.4868


  Species: C

  List of occupied orbitals and eigenvalues:
    n    l              occ      energy [Ha]    energy [eV]
    1    0           2.0000       -10.049212      -273.4530
    2    0           2.0000        -0.504761       -13.7352
    2    1           2.0000        -0.193631        -5.2690

  Creating fixed part of basis set: Ionic, confined, hydrogenic.
 
  H                    hydrogenic:
 
  List of hydrogenic basis orbitals: 
    n    l      effective z      eigenvalue [eV]  inner max. [A]     outer max. [A]     outer radius [A]   
    2    0         2.100000       -14.9965           0.193243           1.317208           5.373006
    2    1         3.500000       -41.6672           0.602369           0.602369           4.056063
    1    0         0.850000        -9.8292           0.624871           0.624871           5.373006
    2    1         3.700000       -46.5653           0.573622           0.573622           3.910002
    2    0         1.200000        -4.5995           0.334980           2.228188           5.505995
    3    2         7.000000       -74.0753           0.680699           0.680699           3.769201
 
 
  C                    hydrogenic:
 
  List of hydrogenic basis orbitals: 
    n    l      effective z      eigenvalue [eV]  inner max. [A]     outer max. [A]     outer radius [A]   
    2    1         1.700000        -9.8152           1.245706           1.245706           5.401630
    3    2         6.000000       -54.4226           0.792453           0.792453           4.178599
    2    0         4.900000       -81.6681           0.082559           0.562749           3.353238
    4    3         9.800000       -81.6681           0.863254           0.863254           4.028125
    3    1         5.200000       -40.8774           0.305389           1.215618           4.898362
    3    0         4.300000       -27.9508           0.091041           1.610311           5.401630
    5    4        14.400000      -112.8510           0.917666           0.917666           3.883070
    3    2         6.200000       -58.1113           0.763917           0.763917           4.077671
 

  Adding cutoff potential to free-atom effective potential.
  Creating atomic-like basis functions for current effective potential.

  Species H                   :

  List of atomic basis orbitals and eigenvalues:
    n    l      energy [Ha]    energy [eV]    outer radius [A]
    1    0        -0.238386        -6.4868       5.373006


  Species C                   :

  List of atomic basis orbitals and eigenvalues:
    n    l      energy [Ha]    energy [eV]    outer radius [A]
    1    0       -10.049212      -273.4530       1.934409
    2    0        -0.504761       -13.7352       5.271162
    2    1        -0.193631        -5.2690       5.401630

  Assembling full basis from fixed parts.
  | Species H :   atomic orbital   1 s accepted.
  | Species H :    hydro orbital   2 s accepted.
  | Species H :    hydro orbital   1 s accepted.
  | Species H :    hydro orbital   2 s accepted.
  | Species H :    hydro orbital   2 p accepted.
  | Species H :    hydro orbital   2 p accepted.
  | Species H :    hydro orbital   3 d accepted.
  | Species C :   atomic orbital   1 s accepted.
  | Species C :    hydro orbital   2 s accepted.
  | Species C :   atomic orbital   2 s accepted.
  | Species C :    hydro orbital   3 s accepted.
  | Species C :    hydro orbital   3 p accepted.
  | Species C :   atomic orbital   2 p accepted.
  | Species C :    hydro orbital   2 p accepted.
  | Species C :    hydro orbital   3 d accepted.
  | Species C :    hydro orbital   3 d accepted.
  | Species C :    hydro orbital   4 f accepted.
  | Species C :    hydro orbital   5 g accepted.
 
  Basis size parameters after reduction:
  | Total number of radial functions:       18
  | Total number of basis functions :     1752
 
  Per-task memory consumption for arrays in subroutine allocate_ext:
  |           4.453976MB.
  Testing on-site integration grid accuracy.
  |  Species  Function  <phi|h_atom|phi> (log., in eV)  <phi|h_atom|phi> (rad., in eV)
           1        1                 -6.4870767962                 -6.4871688290
           1        2                 13.5032046589                 13.5028982997
           1        3                 32.8195184817                 32.8119941656
           1        4                 33.8513856511                 33.7670005767 ***
           1        5                 28.8544614965                 28.8544615203
           1        6                 59.6326952547                 59.6327656460
           1        7                 60.2719308513                 60.2719305949
           2        8               -273.4529726040               -273.4529710464
           2        9                -10.7721037319                -10.7721022101
           2       10                 17.6044132601                 17.6044162063
           2       11                 53.7706460658                 53.7706913770
           2       12                 15.0973290362                 15.0973256030
           2       13                  3.8545134692                  3.8545724687
           2       14                 12.1156992592                 12.1182024431
           2       15                 29.4352039302                 29.4352041816
           2       16                 54.8741144708                 54.8740268729
           2       17                 59.3556032049                 59.3556031382
           2       18                 93.4551837154                 93.4551838009
 * Note: Onsite integrals marked "***" above are less accurate than
 * onsite_accuracy_threshold =    0.03000 eV. Usually, this is harmless.
 * When in doubt, tighten the "radial" and/or "radial_multiplier" flags to check.

  Preparing densities etc. for the partition functions (integrals / Hartree potential).

  Preparations completed.
  max(cpu_time)          :      0.194 s.
  Wall clock time (cpu1) :      0.183 s.
------------------------------------------------------------

------------------------------------------------------------
          Begin self-consistency loop: Initialization.

          Date     :  20210620, Time     :  161313.605
------------------------------------------------------------

  Initializing index lists of integration centers etc. from given atomic structure:
  | Number of centers in hartree potential         :        56
  | Number of centers in hartree multipole         :        56
  | Number of centers in electron density summation:        56
  | Number of centers in basis integrals           :        56
  | Number of centers in integrals                 :        56
  | Number of centers in hamiltonian               :        56
  * Using 56 tasks for Scalapack Eigenvalue solver.
  Detailed listing of tasks and assigned k-points:
  (for non-periodic systems, the "k-point" denotes an internal label only)
   Task     0 k-point     1 on d030
   Task     1 k-point     1 on d030
   Task     2 k-point     1 on d030
   Task     3 k-point     1 on d030
   Task     4 k-point     1 on d030
   Task     5 k-point     1 on d030
   Task     6 k-point     1 on d030
   Task     7 k-point     1 on d030
   Task     8 k-point     1 on d030
   Task     9 k-point     1 on d030
   Task    10 k-point     1 on d030
   Task    11 k-point     1 on d030
   Task    12 k-point     1 on d030
   Task    13 k-point     1 on d030
   Task    14 k-point     1 on d030
   Task    15 k-point     1 on d030
   Task    16 k-point     1 on d030
   Task    17 k-point     1 on d030
   Task    18 k-point     1 on d030
   Task    19 k-point     1 on d030
   Task    20 k-point     1 on d030
   Task    21 k-point     1 on d030
   Task    22 k-point     1 on d030
   Task    23 k-point     1 on d030
   Task    24 k-point     1 on d030
   Task    25 k-point     1 on d030
   Task    26 k-point     1 on d030
   Task    27 k-point     1 on d030
   Task    28 k-point     1 on d030
   Task    29 k-point     1 on d030
   Task    30 k-point     1 on d030
   Task    31 k-point     1 on d030
   Task    32 k-point     1 on d030
   Task    33 k-point     1 on d030
   Task    34 k-point     1 on d030
   Task    35 k-point     1 on d030
   Task    36 k-point     1 on d030
   Task    37 k-point     1 on d030
   Task    38 k-point     1 on d030
   Task    39 k-point     1 on d030
   Task    40 k-point     1 on d030
   Task    41 k-point     1 on d030
   Task    42 k-point     1 on d030
   Task    43 k-point     1 on d030
   Task    44 k-point     1 on d030
   Task    45 k-point     1 on d030
   Task    46 k-point     1 on d030
   Task    47 k-point     1 on d030
   Task    48 k-point     1 on d030
   Task    49 k-point     1 on d030
   Task    50 k-point     1 on d030
   Task    51 k-point     1 on d030
   Task    52 k-point     1 on d030
   Task    53 k-point     1 on d030
   Task    54 k-point     1 on d030
   Task    55 k-point     1 on d030
  Tasks:    56 split into      8 X      7 BLACS grid
  Calculating block size based on n_basis =         1752 max_nprow =            8 max_npcol =            7
  ScaLAPACK block size set to:           16
  Allocating        0.459 MB for ovlp
  Allocating        0.459 MB for ham
  Allocating        0.459 MB for eigenvec
  Required Scalapack workspace - INTEGER:            1 REAL:             1
  Partitioning the integration grid into batches with parallel hashing+maxmin method.
  | Number of batches:     8852
  | Maximal batch size:     196
  | Minimal batch size:      12
  | Average batch size:     106.989
  | Standard deviation of batch sizes:      34.444

  Integration load balanced across     56 MPI tasks.
  Work distribution over tasks is as follows:
  Task      0 has      17005 integration points.
  Task      1 has      16943 integration points.
  Task      2 has      16888 integration points.
  Task      3 has      17039 integration points.
  Task      4 has      16811 integration points.
  Task      5 has      16900 integration points.
  Task      6 has      16871 integration points.
  Task      7 has      16969 integration points.
  Task      8 has      16970 integration points.
  Task      9 has      16839 integration points.
  Task     10 has      17035 integration points.
  Task     11 has      16789 integration points.
  Task     12 has      16931 integration points.
  Task     13 has      16827 integration points.
  Task     14 has      16997 integration points.
  Task     15 has      16963 integration points.
  Task     16 has      16866 integration points.
  Task     17 has      16940 integration points.
  Task     18 has      16921 integration points.
  Task     19 has      16973 integration points.
  Task     20 has      16797 integration points.
  Task     21 has      16900 integration points.
  Task     22 has      16997 integration points.
  Task     23 has      16800 integration points.
  Task     24 has      16922 integration points.
  Task     25 has      16877 integration points.
  Task     26 has      16929 integration points.
  Task     27 has      16844 integration points.
  Task     28 has      16970 integration points.
  Task     29 has      17001 integration points.
  Task     30 has      16915 integration points.
  Task     31 has      16915 integration points.
  Task     32 has      16904 integration points.
  Task     33 has      16918 integration points.
  Task     34 has      16822 integration points.
  Task     35 has      16991 integration points.
  Task     36 has      17003 integration points.
  Task     37 has      16820 integration points.
  Task     38 has      16969 integration points.
  Task     39 has      16818 integration points.
  Task     40 has      16902 integration points.
  Task     41 has      16853 integration points.
  Task     42 has      16963 integration points.
  Task     43 has      16936 integration points.
  Task     44 has      16867 integration points.
  Task     45 has      16993 integration points.
  Task     46 has      16902 integration points.
  Task     47 has      16858 integration points.
  Task     48 has      16844 integration points.
  Task     49 has      16933 integration points.
  Task     50 has      17011 integration points.
  Task     51 has      16834 integration points.
  Task     52 has      16991 integration points.
  Task     53 has      16823 integration points.
  Task     54 has      16990 integration points.
  Task     55 has      16775 integration points.
  Initializing partition tables, free-atom densities, potentials, etc. across the integration grid (initialize_grid_storage).
  | initialize_grid_storage: Actual outermost partition radius vs. multipole_radius_free
  | (-- VB: in principle, multipole_radius_free should be larger, hence this output)
  | Species        1: Confinement radius =              6.000000000000000 AA, multipole_radius_free =              6.071692442739658 AA.
  | Species        1: outer_partition_radius set to              6.071692442739658 AA .
  | Species        2: Confinement radius =              6.000000000000000 AA, multipole_radius_free =              6.029870734432609 AA.
  | Species        2: outer_partition_radius set to              6.029870734432609 AA .
  | The sparse table of interatomic distances needs     37.0200 kbyte instead of    25.0880 kbyte of memory.
  | Using the partition_type stratmann_smoother will reduce your memory usage.
  | Net number of integration points:   947064
  | of which are non-zero points    :   753285
  Renormalizing the initial density to the exact electron count on the 3D integration grid.
  | Initial density: Formal number of electrons (from input files) :     246.0000000000
  | Integrated number of electrons on 3D grid     :     245.9997861895
  | Charge integration error                      :      -0.0002138105
  | Normalization factor for density and gradient :       1.0000008691
  Obtaining max. number of non-zero basis functions in each batch (get_n_compute_maxes).
  | Maximal number of non-zero basis functions:     1029
  Selecting the method for density update.
  Loop over occupied states selected for charge density update.
  Hamiltonian matrix size:
  | Size of matrix non-packed:               1535628
  | Size of matrix packed:         1231688
  Allocating        3.700 MB for KS_eigenvector
  use_local_index: Max. local matrix size =       903998
  Task:     0 matrix size:     169653
  Task:     1 matrix size:     283408
  Task:     2 matrix size:     336460
  Task:     3 matrix size:     262357
  Task:     4 matrix size:     288273
  Task:     5 matrix size:     612942
  Task:     6 matrix size:     693284
  Task:     7 matrix size:     282878
  Task:     8 matrix size:     350229
  Task:     9 matrix size:     523305
  Task:    10 matrix size:     183254
  Task:    11 matrix size:     339097
  Task:    12 matrix size:     706454
  Task:    13 matrix size:     707987
  Task:    14 matrix size:     304314
  Task:    15 matrix size:     161481
  Task:    16 matrix size:     278412
  Task:    17 matrix size:     813212
  Task:    18 matrix size:     821060
  Task:    19 matrix size:     736016
  Task:    20 matrix size:     562572
  Task:    21 matrix size:     448243
  Task:    22 matrix size:     897898
  Task:    23 matrix size:     831153
  Task:    24 matrix size:     219702
  Task:    25 matrix size:     345516
  Task:    26 matrix size:     553544
  Task:    27 matrix size:     350004
  Task:    28 matrix size:     266425
  Task:    29 matrix size:     529481
  Task:    30 matrix size:     376883
  Task:    31 matrix size:     876147
  Task:    32 matrix size:     903998
  Task:    33 matrix size:     465784
  Task:    34 matrix size:     274127
  Task:    35 matrix size:     288831
  Task:    36 matrix size:     695172
  Task:    37 matrix size:     540527
  Task:    38 matrix size:     822646
  Task:    39 matrix size:     804734
  Task:    40 matrix size:     460330
  Task:    41 matrix size:     310738
  Task:    42 matrix size:     633989
  Task:    43 matrix size:     577768
  Task:    44 matrix size:     397734
  Task:    45 matrix size:     333361
  Task:    46 matrix size:     338360
  Task:    47 matrix size:     242535
  Task:    48 matrix size:     134940
  Task:    49 matrix size:     553908
  Task:    50 matrix size:     346697
  Task:    51 matrix size:     195498
  Task:    52 matrix size:     385153
  Task:    53 matrix size:     334295
  Task:    54 matrix size:     233561
  Task:    55 matrix size:     138601
  Integrating Hamiltonian matrix: batch-based integration.
  Time summed over all CPUs for integration: real work      189.413 s, elapsed      358.355 s
  Time get_set_sparse_local_matrix_scalapack:     0.016880 s
  Start compute_balanced_batch_distribution
  Done load balancing, time needed:      0.009 s
  Integrating overlap matrix with loadbalancing
  Time summed over all CPUs for integration: real work       53.851 s, elapsed       63.398 s
  Time get_set_full_local_matrix_scalapack:     0.019302 s

  Updating Kohn-Sham eigenvalues and eigenvectors using ELSI and the ELPA eigensolver.
  Overlap matrix is not singular
  | Lowest and highest eigenvalues :  0.12E+02,  0.86E-04
  Finished singularity check of overlap matrix
  | Time :     0.124 s
  Finished Cholesky decomposition
  | Time :     0.026 s
  Finished transformation to standard eigenproblem
  | Time :     0.021 s
  Starting ELPA eigensolver
  Finished solving standard eigenproblem
  | Time :     0.124 s
  Finished back-transformation of eigenvectors
  | Time :     0.006 s

  Obtaining occupation numbers and chemical potential using ELSI.
  | Chemical potential (Fermi level):    -8.11317952 eV
  Writing Kohn-Sham eigenvalues.

  State    Occupation    Eigenvalue [Ha]    Eigenvalue [eV]
      1       2.00000         -10.175440         -276.88781
      2       2.00000         -10.173188         -276.82654
      3       2.00000         -10.172751         -276.81465
      4       2.00000         -10.172567         -276.80965
      5       2.00000         -10.172004         -276.79432
      6       2.00000         -10.171841         -276.78989
      7       2.00000         -10.171613         -276.78368
      8       2.00000         -10.170371         -276.74987
      9       2.00000         -10.170165         -276.74427
     10       2.00000         -10.170079         -276.74192
     11       2.00000         -10.169333         -276.72164
     12       2.00000         -10.169175         -276.71733
     13       2.00000         -10.169084         -276.71486
     14       2.00000         -10.168716         -276.70485
     15       2.00000         -10.168561         -276.70063
     16       2.00000         -10.168500         -276.69898
     17       2.00000         -10.168275         -276.69285
     18       2.00000         -10.167729         -276.67799
     19       2.00000         -10.167338         -276.66733
     20       2.00000         -10.167258         -276.66516
     21       2.00000         -10.166811         -276.65302
     22       2.00000         -10.166688         -276.64966
     23       2.00000         -10.166674         -276.64926
     24       2.00000         -10.166601         -276.64730
     25       2.00000         -10.166201         -276.63641
     26       2.00000         -10.166098         -276.63361
     27       2.00000         -10.166083         -276.63321
     28       2.00000         -10.164726         -276.59626
     29       2.00000         -10.164545         -276.59133
     30       2.00000         -10.164040         -276.57759
     31       2.00000         -10.163652         -276.56705
     32       2.00000         -10.163238         -276.55577
     33       2.00000         -10.162777         -276.54322
     34       2.00000         -10.162774         -276.54314
     35       2.00000         -10.162655         -276.53991
     36       2.00000         -10.161386         -276.50537
     37       2.00000         -10.160769         -276.48860
     38       2.00000         -10.160280         -276.47528
     39       2.00000          -1.027440          -27.95806
     40       2.00000          -1.019910          -27.75315
     41       2.00000          -0.998841          -27.17984
     42       2.00000          -0.992269          -27.00100
     43       2.00000          -0.976213          -26.56412
     44       2.00000          -0.972287          -26.45727
     45       2.00000          -0.952044          -25.90645
     46       2.00000          -0.942784          -25.65447
     47       2.00000          -0.932602          -25.37740
     48       2.00000          -0.928596          -25.26839
     49       2.00000          -0.902635          -24.56194
     50       2.00000          -0.896326          -24.39028
     51       2.00000          -0.891064          -24.24708
     52       2.00000          -0.884857          -24.07818
     53       2.00000          -0.871797          -23.72282
     54       2.00000          -0.867990          -23.61921
     55       2.00000          -0.862490          -23.46955
     56       2.00000          -0.852823          -23.20651
     57       2.00000          -0.835433          -22.73329
     58       2.00000          -0.793356          -21.58831
     59       2.00000          -0.784752          -21.35419
     60       2.00000          -0.776335          -21.12514
     61       2.00000          -0.773679          -21.05289
     62       2.00000          -0.766560          -20.85917
     63       2.00000          -0.761327          -20.71676
     64       2.00000          -0.756773          -20.59284
     65       2.00000          -0.748588          -20.37012
     66       2.00000          -0.736868          -20.05120
     67       2.00000          -0.699558          -19.03594
     68       2.00000          -0.692932          -18.85564
     69       2.00000          -0.688555          -18.73654
     70       2.00000          -0.682182          -18.56311
     71       2.00000          -0.678978          -18.47593
     72       2.00000          -0.674781          -18.36172
     73       2.00000          -0.660932          -17.98488
     74       2.00000          -0.657072          -17.87983
     75       2.00000          -0.646234          -17.58491
     76       2.00000          -0.640974          -17.44180
     77       2.00000          -0.624777          -17.00106
     78       2.00000          -0.623430          -16.96440
     79       2.00000          -0.619744          -16.86411
     80       2.00000          -0.612999          -16.68055
     81       2.00000          -0.607299          -16.52544
     82       2.00000          -0.602560          -16.39649
     83       2.00000          -0.594615          -16.18031
     84       2.00000          -0.589846          -16.05053
     85       2.00000          -0.585474          -15.93157
     86       2.00000          -0.583396          -15.87501
     87       2.00000          -0.575599          -15.66285
     88       2.00000          -0.572167          -15.56944
     89       2.00000          -0.570619          -15.52733
     90       2.00000          -0.563779          -15.34120
     91       2.00000          -0.557923          -15.18185
     92       2.00000          -0.552672          -15.03897
     93       2.00000          -0.547461          -14.89718
     94       2.00000          -0.545353          -14.83980
     95       2.00000          -0.544478          -14.81599
     96       2.00000          -0.538181          -14.64464
     97       2.00000          -0.531538          -14.46388
     98       2.00000          -0.527654          -14.35819
     99       2.00000          -0.524464          -14.27138
    100       2.00000          -0.517837          -14.09107
    101       2.00000          -0.513576          -13.97511
    102       2.00000          -0.510021          -13.87839
    103       2.00000          -0.504365          -13.72447
    104       2.00000          -0.502922          -13.68521
    105       2.00000          -0.500570          -13.62121
    106       2.00000          -0.491092          -13.36329
    107       2.00000          -0.485594          -13.21368
    108       2.00000          -0.484901          -13.19484
    109       2.00000          -0.481703          -13.10780
    110       2.00000          -0.472242          -12.85037
    111       2.00000          -0.460998          -12.54440
    112       2.00000          -0.454223          -12.36004
    113       2.00000          -0.443056          -12.05616
    114       2.00000          -0.435872          -11.86067
    115       2.00000          -0.414366          -11.27547
    116       2.00000          -0.412662          -11.22909
    117       2.00000          -0.404244          -11.00004
    118       2.00000          -0.400700          -10.90359
    119       2.00000          -0.386626          -10.52062
    120       2.00000          -0.383454          -10.43432
    121       2.00000          -0.373276          -10.15735
    122       2.00000          -0.362687           -9.86920
    123       2.00000          -0.334663           -9.10664
    124       0.00000          -0.276167           -7.51489
    125       0.00000          -0.247835           -6.74393
    126       0.00000          -0.236422           -6.43338
    127       0.00000          -0.226344           -6.15913
    128       0.00000          -0.223048           -6.06944
    129       0.00000          -0.210913           -5.73922
    130       0.00000          -0.204385           -5.56161
    131       0.00000          -0.195846           -5.32923
    132       0.00000          -0.194086           -5.28134
    133       0.00000          -0.162996           -4.43534
    134       0.00000          -0.154229           -4.19677
    135       0.00000          -0.135073           -3.67551
    136       0.00000          -0.130298           -3.54558
    137       0.00000          -0.095716           -2.60455
    138       0.00000          -0.090516           -2.46306
    139       0.00000          -0.072575           -1.97488
    140       0.00000          -0.068416           -1.86168
    141       0.00000          -0.064978           -1.76814
    142       0.00000          -0.062609           -1.70369
    143       0.00000          -0.058317           -1.58688
    144       0.00000          -0.055401           -1.50755
    145       0.00000          -0.052062           -1.41667
    146       0.00000          -0.041287           -1.12348
    147       0.00000          -0.038219           -1.04000
    148       0.00000          -0.033376           -0.90821
    149       0.00000          -0.033116           -0.90114
    150       0.00000          -0.025312           -0.68877
    151       0.00000          -0.023421           -0.63733
    152       0.00000          -0.022966           -0.62494
    153       0.00000          -0.019392           -0.52769
    154       0.00000          -0.013869           -0.37740
    155       0.00000          -0.013416           -0.36506
    156       0.00000          -0.008725           -0.23742
    157       0.00000          -0.006201           -0.16873
    158       0.00000          -0.005084           -0.13835
    159       0.00000          -0.000052           -0.00143
    160       0.00000           0.003240            0.08816
    161       0.00000           0.003537            0.09625
    162       0.00000           0.007660            0.20843
    163       0.00000           0.010807            0.29406
    164       0.00000           0.016080            0.43756
    165       0.00000           0.018590            0.50586
    166       0.00000           0.022044            0.59985
    167       0.00000           0.025085            0.68260
    168       0.00000           0.026681            0.72602
    169       0.00000           0.030715            0.83580
    170       0.00000           0.030945            0.84205
    171       0.00000           0.033968            0.92431
    172       0.00000           0.038360            1.04382
    173       0.00000           0.041651            1.13339
    174       0.00000           0.043419            1.18148
    175       0.00000           0.044845            1.22030
    176       0.00000           0.046540            1.26643
    177       0.00000           0.047883            1.30295
    178       0.00000           0.050306            1.36891
    179       0.00000           0.053975            1.46873
    180       0.00000           0.055585            1.51256
    181       0.00000           0.058134            1.58189
    182       0.00000           0.061204            1.66543
    183       0.00000           0.063482            1.72744
    184       0.00000           0.066133            1.79958
    185       0.00000           0.069061            1.87925
    186       0.00000           0.072356            1.96890
    187       0.00000           0.073762            2.00717
    188       0.00000           0.076196            2.07339
    189       0.00000           0.079536            2.16428
    190       0.00000           0.082653            2.24911
    191       0.00000           0.085239            2.31947
    192       0.00000           0.087355            2.37706
    193       0.00000           0.090192            2.45425
    194       0.00000           0.091520            2.49039
    195       0.00000           0.095275            2.59255
    196       0.00000           0.096345            2.62169
    197       0.00000           0.098793            2.68829
    198       0.00000           0.102601            2.79192
    199       0.00000           0.104587            2.84594
    200       0.00000           0.106934            2.90982
    201       0.00000           0.108811            2.96089
    202       0.00000           0.111644            3.03799
    203       0.00000           0.112048            3.04897
    204       0.00000           0.114517            3.11616
    205       0.00000           0.120893            3.28965
    206       0.00000           0.122827            3.34228
    207       0.00000           0.126768            3.44955
    208       0.00000           0.130163            3.54192
    209       0.00000           0.131460            3.57722
    210       0.00000           0.133894            3.64344
    211       0.00000           0.136767            3.72163
    212       0.00000           0.139189            3.78753
    213       0.00000           0.142170            3.86864
    214       0.00000           0.146243            3.97948
    215       0.00000           0.147290            4.00797
    216       0.00000           0.148343            4.03661
    217       0.00000           0.150670            4.09994
    218       0.00000           0.151864            4.13244
    219       0.00000           0.154073            4.19253
    220       0.00000           0.155042            4.21891
    221       0.00000           0.159900            4.35109
    222       0.00000           0.162692            4.42708
    223       0.00000           0.163960            4.46158
    224       0.00000           0.165174            4.49462
    225       0.00000           0.165949            4.51571
    226       0.00000           0.167772            4.56531
    227       0.00000           0.169863            4.62221
    228       0.00000           0.173868            4.73120
    229       0.00000           0.177176            4.82121
    230       0.00000           0.182534            4.96700
    231       0.00000           0.184965            5.03315
    232       0.00000           0.187372            5.09865
    233       0.00000           0.188869            5.13940
    234       0.00000           0.191622            5.21429
    235       0.00000           0.195238            5.31269
    236       0.00000           0.197048            5.36195
    237       0.00000           0.198332            5.39690
    238       0.00000           0.201994            5.49653
    239       0.00000           0.203368            5.53391
    240       0.00000           0.207821            5.65510
    241       0.00000           0.208953            5.68589
    242       0.00000           0.214711            5.84258
    243       0.00000           0.216877            5.90151
    244       0.00000           0.217492            5.91825
    245       0.00000           0.221984            6.04050
    246       0.00000           0.225630            6.13971
    247       0.00000           0.227233            6.18331
    248       0.00000           0.229290            6.23929
    249       0.00000           0.230339            6.26786
    250       0.00000           0.230846            6.28164
    251       0.00000           0.239697            6.52250
    252       0.00000           0.241949            6.58377
    253       0.00000           0.243136            6.61606
    254       0.00000           0.245415            6.67807
    255       0.00000           0.247518            6.73532
    256       0.00000           0.250962            6.82903
    257       0.00000           0.253545            6.89932
    258       0.00000           0.257336            7.00248
    259       0.00000           0.259828            7.07027
    260       0.00000           0.261875            7.12598
    261       0.00000           0.264770            7.20475
    262       0.00000           0.267283            7.27315
    263       0.00000           0.271077            7.37639
    264       0.00000           0.273259            7.43577

  Highest occupied state (VBM) at     -9.10664022 eV
  | Occupation number:      2.00000000

  Lowest unoccupied state (CBM) at    -7.51488645 eV
  | Occupation number:      0.00000000

  Overall HOMO-LUMO gap:      1.59175377 eV.
  Calculating total energy contributions from superposition of free atom densities.

  Total energy components:
  | Sum of eigenvalues            :        -883.03300691 Ha      -24028.55067732 eV
  | XC energy correction          :        -208.14764466 Ha       -5663.98559156 eV
  | XC potential correction       :         267.36805663 Ha        7275.45499204 eV
  | Free-atom electrostatic energy:        -636.23805325 Ha      -17312.91830040 eV
  | Hartree energy correction     :           0.00000000 Ha           0.00000000 eV
  | Entropy correction            :           0.00000000 Ha           0.00000000 eV
  | ---------------------------
  | Total energy                  :       -1460.05064818 Ha      -39729.99957723 eV
  | Total energy, T -> 0          :       -1460.05064818 Ha      -39729.99957723 eV  <-- do not rely on this value for anything but (periodic) metals
  | Electronic free energy        :       -1460.05064818 Ha      -39729.99957723 eV

  Derived energy quantities:
  | Kinetic energy                :        1447.97043248 Ha       39401.28018295 eV
  | Electrostatic energy          :       -2699.87343601 Ha      -73467.29416862 eV
  | Energy correction for multipole
  | error in Hartree potential    :           0.00000000 Ha           0.00000000 eV
  | Sum of eigenvalues per atom                           :        -429.08126209 eV
  | Total energy (T->0) per atom                          :        -709.46427816 eV  <-- do not rely on this value for anything but (periodic) metals
  | Electronic free energy per atom                       :        -709.46427816 eV
  Initialize hartree_potential_storage
  Max. number of atoms included in rho_multipole:           56

  End scf initialization - timings             :  max(cpu_time)    wall_clock(cpu1)
  | Time for scf. initialization               :        9.877 s           9.952 s
  | Boundary condition initialization          :        0.000 s           0.004 s
  | Integration                                :        7.597 s           7.602 s
  | Solution of K.-S. eqns.                    :        0.314 s           0.346 s
  | Grid partitioning                          :        0.970 s           0.974 s
  | Preloading free-atom quantities on grid    :        0.013 s           0.017 s
  | Free-atom superposition energy             :        0.078 s           0.078 s
  | Total energy evaluation                    :        0.001 s           0.004 s

  Partial memory accounting:
  | Current value for overall tracked memory usage on task 0  :           5.756 MB
  | Peak value for overall tracked memory usage on task 0     :          30.130 MB after allocating zora_vector2
  | Largest tracked array allocation on task 0 so far         :           8.471 MB  when allocating hamiltonian_shell
  Note:  These values currently only include a subset of arrays which are explicitly tracked.
  The "true" memory usage will be greater.
------------------------------------------------------------

------------------------------------------------------------
          Begin self-consistency iteration #    1

  Date     :  20210620, Time     :  161323.560
------------------------------------------------------------
  Evaluating new KS density.
  Integration grid: deviation in total charge (<rho> - N_e) =   1.136868E-13
  Pulay mixing of updated and previous charge densities.

  Evaluating partitioned Hartree potential by multipole expansion.
  | Analytical far-field extrapolation by fixed multipoles:
  | Hartree multipole sum: apparent total charge =  -0.224391E-03
  Summing up the Hartree potential with load balancing.
  Time summed over all CPUs for potential: real work       32.818 s, elapsed       49.621 s
  | RMS charge density error from multipole expansion :   0.148762E-01

  Start compute_balanced_batch_distribution
  Done load balancing, time needed:      0.008 s
  Integrating Hamiltonian matrix: batch-based integration with load balancing
  Time summed over all CPUs for integration: real work      206.376 s, elapsed      224.779 s
  Time get_set_full_local_matrix_scalapack:     0.019396 s
  Start compute_balanced_batch_distribution
  Done load balancing, time needed:      0.008 s

  Updating Kohn-Sham eigenvalues and eigenvectors using ELSI and the ELPA eigensolver.
  Finished transformation to standard eigenproblem
  | Time :     0.023 s
  Starting ELPA eigensolver
  Finished solving standard eigenproblem
  | Time :     0.126 s
  Finished back-transformation of eigenvectors
  | Time :     0.005 s

  Obtaining occupation numbers and chemical potential using ELSI.
  | Chemical potential (Fermi level):    -5.71633472 eV
  Writing Kohn-Sham eigenvalues.

  State    Occupation    Eigenvalue [Ha]    Eigenvalue [eV]
      1       2.00000          -9.995987         -272.00464
      2       2.00000          -9.992513         -271.91013
      3       2.00000          -9.989093         -271.81706
      4       2.00000          -9.988728         -271.80712
      5       2.00000          -9.987332         -271.76914
      6       2.00000          -9.983393         -271.66196
      7       2.00000          -9.982960         -271.65015
      8       2.00000          -9.980258         -271.57663
      9       2.00000          -9.978633         -271.53243
     10       2.00000          -9.977635         -271.50527
     11       2.00000          -9.977410         -271.49914
     12       2.00000          -9.976773         -271.48180
     13       2.00000          -9.975777         -271.45470
     14       2.00000          -9.974749         -271.42672
     15       2.00000          -9.974436         -271.41821
     16       2.00000          -9.973977         -271.40571
     17       2.00000          -9.973533         -271.39365
     18       2.00000          -9.971302         -271.33294
     19       2.00000          -9.970194         -271.30278
     20       2.00000          -9.969027         -271.27102
     21       2.00000          -9.968308         -271.25145
     22       2.00000          -9.957881         -270.96772
     23       2.00000          -9.957261         -270.95085
     24       2.00000          -9.957259         -270.95080
     25       2.00000          -9.956714         -270.93597
     26       2.00000          -9.956386         -270.92704
     27       2.00000          -9.955482         -270.90245
     28       2.00000          -9.954731         -270.88201
     29       2.00000          -9.954337         -270.87130
     30       2.00000          -9.952922         -270.83280
     31       2.00000          -9.952909         -270.83243
     32       2.00000          -9.951916         -270.80542
     33       2.00000          -9.950932         -270.77865
     34       2.00000          -9.950362         -270.76312
     35       2.00000          -9.949486         -270.73929
     36       2.00000          -9.947877         -270.69551
     37       2.00000          -9.945384         -270.62768
     38       2.00000          -9.941731         -270.52827
     39       2.00000          -0.890298          -24.22624
     40       2.00000          -0.876744          -23.85742
     41       2.00000          -0.855755          -23.28628
     42       2.00000          -0.847400          -23.05894
     43       2.00000          -0.830852          -22.60865
     44       2.00000          -0.829531          -22.57268
     45       2.00000          -0.806815          -21.95455
     46       2.00000          -0.801845          -21.81931
     47       2.00000          -0.789005          -21.46991
     48       2.00000          -0.781641          -21.26952
     49       2.00000          -0.759345          -20.66284
     50       2.00000          -0.756199          -20.57722
     51       2.00000          -0.748634          -20.37137
     52       2.00000          -0.742673          -20.20916
     53       2.00000          -0.729157          -19.84138
     54       2.00000          -0.723390          -19.68444
     55       2.00000          -0.718749          -19.55816
     56       2.00000          -0.708057          -19.26722
     57       2.00000          -0.691458          -18.81553
     58       2.00000          -0.654322          -17.80501
     59       2.00000          -0.647552          -17.62077
     60       2.00000          -0.639916          -17.41299
     61       2.00000          -0.632996          -17.22470
     62       2.00000          -0.627591          -17.07761
     63       2.00000          -0.623540          -16.96738
     64       2.00000          -0.617128          -16.79291
     65       2.00000          -0.610307          -16.60730
     66       2.00000          -0.598356          -16.28208
     67       2.00000          -0.566428          -15.41330
     68       2.00000          -0.559146          -15.21513
     69       2.00000          -0.554434          -15.08691
     70       2.00000          -0.548706          -14.93105
     71       2.00000          -0.540621          -14.71105
     72       2.00000          -0.537470          -14.62530
     73       2.00000          -0.525496          -14.29949
     74       2.00000          -0.518316          -14.10410
     75       2.00000          -0.515643          -14.03136
     76       2.00000          -0.504244          -13.72119
     77       2.00000          -0.491398          -13.37163
     78       2.00000          -0.490740          -13.35371
     79       2.00000          -0.481943          -13.11433
     80       2.00000          -0.478413          -13.01829
     81       2.00000          -0.469229          -12.76836
     82       2.00000          -0.464645          -12.64365
     83       2.00000          -0.462022          -12.57227
     84       2.00000          -0.452160          -12.30390
     85       2.00000          -0.450010          -12.24541
     86       2.00000          -0.445885          -12.13314
     87       2.00000          -0.441328          -12.00916
     88       2.00000          -0.436284          -11.87190
     89       2.00000          -0.435133          -11.84057
     90       2.00000          -0.431778          -11.74928
     91       2.00000          -0.427484          -11.63244
     92       2.00000          -0.424905          -11.56224
     93       2.00000          -0.421099          -11.45869
     94       2.00000          -0.420381          -11.43914
     95       2.00000          -0.416821          -11.34228
     96       2.00000          -0.410600          -11.17301
     97       2.00000          -0.401368          -10.92177
     98       2.00000          -0.397696          -10.82185
     99       2.00000          -0.392969          -10.69324
    100       2.00000          -0.390986          -10.63928
    101       2.00000          -0.387850          -10.55392
    102       2.00000          -0.382971          -10.42117
    103       2.00000          -0.377714          -10.27812
    104       2.00000          -0.371174          -10.10017
    105       2.00000          -0.369891          -10.06524
    106       2.00000          -0.367043           -9.98775
    107       2.00000          -0.358679           -9.76017
    108       2.00000          -0.349211           -9.50252
    109       2.00000          -0.344818           -9.38298
    110       2.00000          -0.343021           -9.33406
    111       2.00000          -0.337768           -9.19113
    112       2.00000          -0.332726           -9.05393
    113       2.00000          -0.321983           -8.76159
    114       2.00000          -0.315138           -8.57534
    115       2.00000          -0.294462           -8.01271
    116       2.00000          -0.292393           -7.95641
    117       2.00000          -0.284570           -7.74354
    118       2.00000          -0.280004           -7.61929
    119       2.00000          -0.265080           -7.21320
    120       2.00000          -0.261537           -7.11680
    121       2.00000          -0.252041           -6.85838
    122       2.00000          -0.240906           -6.55539
    123       2.00000          -0.213438           -5.80794
    124       0.00000          -0.156213           -4.25076
    125       0.00000          -0.128533           -3.49757
    126       0.00000          -0.116534           -3.17106
    127       0.00000          -0.107012           -2.91195
    128       0.00000          -0.103319           -2.81146
    129       0.00000          -0.092749           -2.52383
    130       0.00000          -0.084764           -2.30654
    131       0.00000          -0.078150           -2.12657
    132       0.00000          -0.073556           -2.00155
    133       0.00000          -0.042597           -1.15912
    134       0.00000          -0.035287           -0.96021
    135       0.00000          -0.029496           -0.80262
    136       0.00000          -0.024763           -0.67383
    137       0.00000          -0.023823           -0.64826
    138       0.00000          -0.017737           -0.48265
    139       0.00000          -0.016418           -0.44676
    140       0.00000          -0.013883           -0.37779
    141       0.00000          -0.011431           -0.31105
    142       0.00000          -0.004659           -0.12678
    143       0.00000          -0.002340           -0.06368
    144       0.00000           0.008120            0.22096
    145       0.00000           0.009849            0.26802
    146       0.00000           0.017260            0.46966
    147       0.00000           0.020337            0.55341
    148       0.00000           0.024161            0.65746
    149       0.00000           0.026899            0.73196
    150       0.00000           0.032877            0.89464
    151       0.00000           0.037342            1.01612
    152       0.00000           0.043981            1.19679
    153       0.00000           0.051497            1.40130
    154       0.00000           0.057463            1.56364
    155       0.00000           0.058398            1.58908
    156       0.00000           0.059258            1.61249
    157       0.00000           0.065713            1.78815
    158       0.00000           0.069150            1.88166
    159       0.00000           0.072599            1.97553
    160       0.00000           0.073292            1.99439
    161       0.00000           0.078537            2.13709
    162       0.00000           0.082671            2.24960
    163       0.00000           0.088530            2.40903
    164       0.00000           0.091481            2.48933
    165       0.00000           0.092050            2.50482
    166       0.00000           0.096179            2.61716
[...]
     94       2.00000          -0.358225           -9.74779
     95       2.00000          -0.357639           -9.73186
     96       2.00000          -0.353835           -9.62833
     97       2.00000          -0.349013           -9.49712
     98       2.00000          -0.343172           -9.33817
     99       2.00000          -0.338088           -9.19983
    100       2.00000          -0.330577           -8.99545
    101       2.00000          -0.328813           -8.94746
    102       2.00000          -0.327123           -8.90148
    103       2.00000          -0.325753           -8.86419
    104       2.00000          -0.323746           -8.80959
    105       2.00000          -0.314709           -8.56368
    106       2.00000          -0.308455           -8.39348
    107       2.00000          -0.300740           -8.18356
    108       2.00000          -0.297914           -8.10665
    109       2.00000          -0.293016           -7.97336
    110       2.00000          -0.286847           -7.80551
    111       2.00000          -0.284623           -7.74499
    112       2.00000          -0.277536           -7.55213
    113       2.00000          -0.272872           -7.42521
    114       2.00000          -0.269774           -7.34093
    115       2.00000          -0.251534           -6.84459
    116       2.00000          -0.250200           -6.80828
    117       2.00000          -0.241875           -6.58175
    118       2.00000          -0.236122           -6.42522
    119       2.00000          -0.222805           -6.06283
    120       2.00000          -0.218558           -5.94726
    121       2.00000          -0.208555           -5.67506
    122       2.00000          -0.197069           -5.36251
    123       2.00000          -0.168409           -4.58264
    124       0.00000          -0.111462           -3.03303
    125       0.00000          -0.084248           -2.29250
    126       0.00000          -0.072274           -1.96669
    127       0.00000          -0.063742           -1.73450
    128       0.00000          -0.059763           -1.62622
    129       0.00000          -0.049212           -1.33911
    130       0.00000          -0.040564           -1.10380
    131       0.00000          -0.035679           -0.97087
    132       0.00000          -0.030462           -0.82891
    133       0.00000          -0.006789           -0.18475
    134       0.00000          -0.002815           -0.07661
    135       0.00000          -0.002241           -0.06098
    136       0.00000           0.001754            0.04774
    137       0.00000           0.004493            0.12226
    138       0.00000           0.007480            0.20354
    139       0.00000           0.008498            0.23124
    140       0.00000           0.016945            0.46110
    141       0.00000           0.019007            0.51720
    142       0.00000           0.028044            0.76311
    143       0.00000           0.029974            0.81564
    144       0.00000           0.030932            0.84171
    145       0.00000           0.033006            0.89814
    146       0.00000           0.044184            1.20230
    147       0.00000           0.046019            1.25225
    148       0.00000           0.050793            1.38216
    149       0.00000           0.055214            1.50244
    150       0.00000           0.060950            1.65853
    151       0.00000           0.067522            1.83736
    152       0.00000           0.071751            1.95246
    153       0.00000           0.078696            2.14144
    154       0.00000           0.080505            2.19065
    155       0.00000           0.083328            2.26748
    156       0.00000           0.089747            2.44214
    157       0.00000           0.094127            2.56133
    158       0.00000           0.096592            2.62839
    159       0.00000           0.099525            2.70821
    160       0.00000           0.104756            2.85057
    161       0.00000           0.108088            2.94123
    162       0.00000           0.110256            3.00022
    163       0.00000           0.113153            3.07905
    164       0.00000           0.115776            3.15041
    165       0.00000           0.119112            3.24121
    166       0.00000           0.122156            3.32403
    167       0.00000           0.125396            3.41220
    168       0.00000           0.129470            3.52306
    169       0.00000           0.136636            3.71806
    170       0.00000           0.140269            3.81692
    171       0.00000           0.140574            3.82522
    172       0.00000           0.145038            3.94668
    173       0.00000           0.146482            3.98598
    174       0.00000           0.147942            4.02572
    175       0.00000           0.151008            4.10913
    176       0.00000           0.158423            4.31090
    177       0.00000           0.159754            4.34713
    178       0.00000           0.164980            4.48934
    179       0.00000           0.166675            4.53545
    180       0.00000           0.169314            4.60727
    181       0.00000           0.171441            4.66514
    182       0.00000           0.172249            4.68713
    183       0.00000           0.174773            4.75581
    184       0.00000           0.177460            4.82894
    185       0.00000           0.178852            4.86681
    186       0.00000           0.179650            4.88853
    187       0.00000           0.182017            4.95293
    188       0.00000           0.186275            5.06881
    189       0.00000           0.188555            5.13083
    190       0.00000           0.190173            5.17487
    191       0.00000           0.192003            5.22467
    192       0.00000           0.192923            5.24971
    193       0.00000           0.199738            5.43514
    194       0.00000           0.200729            5.46212
    195       0.00000           0.202537            5.51132
    196       0.00000           0.203599            5.54021
    197       0.00000           0.205122            5.58165
    198       0.00000           0.207672            5.65104
    199       0.00000           0.208796            5.68163
    200       0.00000           0.211615            5.75833
    201       0.00000           0.215879            5.87437
    202       0.00000           0.218134            5.93573
    203       0.00000           0.221260            6.02078
    204       0.00000           0.222466            6.05362
    205       0.00000           0.223389            6.07871
    206       0.00000           0.227504            6.19070
    207       0.00000           0.230635            6.27590
    208       0.00000           0.230969            6.28498
    209       0.00000           0.233572            6.35581
    210       0.00000           0.236158            6.42617
    211       0.00000           0.239341            6.51280
    212       0.00000           0.241180            6.56285
    213       0.00000           0.243073            6.61435
    214       0.00000           0.245726            6.68654
    215       0.00000           0.248729            6.76826
    216       0.00000           0.251821            6.85239
    217       0.00000           0.253422            6.89595
    218       0.00000           0.254344            6.92104
    219       0.00000           0.258034            7.02146
    220       0.00000           0.259108            7.05067
    221       0.00000           0.262354            7.13901
    222       0.00000           0.263518            7.17069
    223       0.00000           0.267000            7.26544
    224       0.00000           0.269202            7.32535
    225       0.00000           0.271106            7.37716
    226       0.00000           0.274607            7.47243
    227       0.00000           0.277083            7.53982
    228       0.00000           0.278403            7.57574
    229       0.00000           0.281878            7.67029
    230       0.00000           0.284502            7.74168
    231       0.00000           0.287270            7.81701
    232       0.00000           0.290339            7.90052
    233       0.00000           0.295139            8.03114
    234       0.00000           0.297957            8.10783
    235       0.00000           0.300478            8.17642
    236       0.00000           0.300865            8.18695
    237       0.00000           0.304315            8.28084
    238       0.00000           0.307312            8.36237
    239       0.00000           0.311149            8.46680
    240       0.00000           0.315672            8.58989
    241       0.00000           0.318010            8.65350
    242       0.00000           0.321374            8.74502
    243       0.00000           0.323911            8.81407
    244       0.00000           0.329090            8.95499
    245       0.00000           0.330858            9.00311
    246       0.00000           0.335015            9.11623
    247       0.00000           0.336657            9.16090
    248       0.00000           0.339036            9.22564
    249       0.00000           0.341733            9.29903
    250       0.00000           0.346246            9.42184
    251       0.00000           0.349234            9.50314
    252       0.00000           0.351025            9.55188
    253       0.00000           0.352932            9.60376
    254       0.00000           0.358061            9.74335
    255       0.00000           0.361710            9.84262
    256       0.00000           0.365276            9.93968
    257       0.00000           0.366217            9.96528
    258       0.00000           0.370038           10.06925
    259       0.00000           0.374050           10.17843
    260       0.00000           0.376466           10.24416
    261       0.00000           0.384490           10.46250
    262       0.00000           0.386897           10.52801
    263       0.00000           0.391541           10.65438
    264       0.00000           0.395691           10.76731

  Highest occupied state (VBM) at     -4.58264317 eV
  | Occupation number:      2.00000000

  Lowest unoccupied state (CBM) at    -3.03302687 eV
  | Occupation number:      0.00000000

  Overall HOMO-LUMO gap:      1.54961630 eV.

  Total energy components:
  | Sum of eigenvalues            :        -830.82495797 Ha      -22607.89738357 eV
  | XC energy correction          :        -211.67396016 Ha       -5759.94151853 eV
  | XC potential correction       :         271.92717224 Ha        7399.51483987 eV
  | Free-atom electrostatic energy:        -636.23805325 Ha      -17312.91830040 eV
  | Hartree energy correction     :         -51.59093527 Ha       -1403.86077628 eV
  | Entropy correction            :           0.00000000 Ha           0.00000000 eV
  | ---------------------------
  | Total energy                  :       -1458.40073440 Ha      -39685.10313891 eV
  | Total energy, T -> 0          :       -1458.40073440 Ha      -39685.10313891 eV  <-- do not rely on this value for anything but (periodic) metals
  | Electronic free energy        :       -1458.40073440 Ha      -39685.10313891 eV

  Derived energy quantities:
  | Kinetic energy                :        1454.36165940 Ha       39575.19431586 eV
  | Electrostatic energy          :       -2701.08843364 Ha      -73500.35593624 eV
  | Energy correction for multipole
  | error in Hartree potential    :          -0.18204514 Ha          -4.95370025 eV
  | Sum of eigenvalues per atom                           :        -403.71245328 eV
  | Total energy (T->0) per atom                          :        -708.66255605 eV  <-- do not rely on this value for anything but (periodic) metals
  | Electronic free energy per atom                       :        -708.66255605 eV
  End evaluation of scaled ZORA corrections.
  | Time for scaled ZORA corrections           :        7.049 s           7.061 s
------------------------------------------------------------

  Energy and forces in a compact form:
  | Total energy uncorrected      :         -0.396851031389103E+05 eV
  | Total energy corrected        :         -0.396851031389103E+05 eV  <-- do not rely on this value for anything but (periodic) metals
  | Electronic free energy        :         -0.396851031389103E+05 eV

  ------------------------------------ 
  Start decomposition of the XC Energy 
  ------------------------------------ 
  X and C from original XC functional choice 
  Hartree-Fock Energy :          0.000000000 Ha              0.000000000 eV
  X Energy            :       -203.357935552 Ha          -5533.650975420 eV
  C Energy            :         -8.316024608 Ha           -226.290543111 eV
  Total XC Energy     :       -211.673960159 Ha          -5759.941518531 eV
  ------------------------------------ 
  LDA X and C from self-consistent density 
  X Energy LDA        :       -184.241590005 Ha          -5013.468746521 eV
  C Energy LDA        :        -15.970070999 Ha           -434.567742438 eV
  ------------------------------------ 
  End decomposition of the XC Energy 
  ------------------------------------ 

------------------------------------------------------------

------------------------------------------------------------------------------
  Final output of selected total energy values:

  The following output summarizes some interesting total energy values
  at the end of a run (AFTER all relaxation, molecular dynamics, etc.).

  | Total energy of the DFT / Hartree-Fock s.c.f. calculation      :         -39685.103138910 eV
  | Final zero-broadening corrected energy (caution - metals only) :         -39685.103138910 eV
  | For reference only, the value of 1 Hartree used in FHI-aims is :             27.211384500 eV

  Before relying on these values, please be sure to understand exactly which
  total energy value is referred to by a given number. Different objects may
  all carry the same name 'total energy'. Definitions:

  Total energy of the DFT / Hartree-Fock s.c.f. calculation:
  | Note that this energy does not include ANY quantities calculated after the
  | s.c.f. cycle, in particular not ANY RPA, MP2, etc. many-body perturbation terms.
  | Scalar relativistic effects have been included in the 'scaled ZORA' approximation.

  Final zero-broadening corrected energy:
  | For metallic systems only, a broadening of the occupation numbers at the Fermi
  | level can be extrapolated back to zero broadening by an electron-gas inspired
  | formula. For all systems that are not real metals, this value can be
  | meaningless and should be avoided.

------------------------------------------------------------------------------
  Methods described in the following list of references were used in this FHI-aims run.
  If you publish the results, please make sure to cite these reference if they apply.
  FHI-aims is an academic code, and for our developers (often, Ph.D. students
  and postdocs), scientific credit in the community is essential.
  Thank you for helping us!

  For any use of FHI-aims, please cite:

    Volker Blum, Ralf Gehrke, Felix Hanke, Paula Havu, Ville Havu,
    Xinguo Ren, Karsten Reuter, and Matthias Scheffler
    'Ab initio molecular simulations with numeric atom-centered orbitals'
    Computer Physics Communications 180, 2175-2196 (2009)
    http://dx.doi.org/10.1016/j.cpc.2009.06.022


  The scalable eigensolver library ELPA was used in your run.
  ELPA is essential especially for large systems on hundreds or thousands of CPUs.
  For ELPA, please cite:

    Andreas Marek, Volker Blum, Rainer Johanni, Ville Havu, Bruno Lang,
    Thomas Auckenthaler, Alexander Heinecke, Hans-Joachim Bungartz, and Hermann Lederer,
    'The ELPA Library - Scalable Parallel Eigenvalue Solutions
    for Electronic Structure Theory and Computational Science'
    The Journal of Physics: Condensed Matter 26, 213201 (2014).
    http://dx.doi.org/10.1088/0953-8984/26/21/213201


  The ELSI infrastructure was used in your run to solve the Kohn-Sham electronic structure.
  Please check out http://elsi-interchange.org to learn more.
  If scalability is important for your project, please acknowledge ELSI by citing:

    V. W-z. Yu, F. Corsetti, A. Garcia, W. P. Huhn, M. Jacquelin, W. Jia,
    B. Lange, L. Lin, J. Lu, W. Mi, A. Seifitokaldani, A. Vazquez-Mayagoitia,
    C. Yang, H. Yang, and V. Blum
    'ELSI: A unified software interface for Kohn-Sham electronic structure solvers'
    Computer Physics Communications 222, 267-285 (2018).
    http://dx.doi.org/10.1016/j.cpc.2017.09.007


  For the real-space grid partitioning and parallelization used in this calculation, please cite:

    Ville Havu, Volker Blum, Paula Havu, and Matthias Scheffler,
    'Efficient O(N) integration for all-electron electronic structure calculation'
    'using numerically tabulated basis functions'
    Journal of Computational Physics 228, 8367-8379 (2009).
    http://dx.doi.org/10.1016/j.jcp.2009.08.008

  Of course, there are many other important community references, e.g., those cited in the
  above references. Our list is limited to references that describe implementations in the
  FHI-aims code. The reason is purely practical (length of this list) - please credit others as well.

------------------------------------------------------------
          Leaving FHI-aims.
          Date     :  20210620, Time     :  161529.503

          Computational steps:
          | Number of self-consistency cycles          :           18
          | Number of SCF (re)initializations          :            1

          Detailed time accounting                     :  max(cpu_time)    wall_clock(cpu1)
          | Total time                                 :      135.786 s         136.274 s
          | Preparation time                           :        0.194 s           0.183 s
          | Boundary condition initalization           :        0.000 s           0.004 s
          | Grid partitioning                          :        0.970 s           0.974 s
          | Preloading free-atom quantities on grid    :        0.013 s           0.017 s
          | Free-atom superposition energy             :        0.078 s           0.078 s
          | Total time for integrations                :       77.472 s          77.477 s
          | Total time for solution of K.-S. equations :        4.022 s           4.062 s
          | Total time for density update              :       32.161 s          32.110 s
          | Total time for mixing                      :        0.168 s           0.170 s
          | Total time for Hartree multipole update    :        0.181 s           0.189 s
          | Total time for Hartree multipole sum       :       12.321 s          12.323 s
          | Total time for total energy evaluation     :        0.006 s           0.030 s
          | Total time for scaled ZORA corrections     :        7.049 s           7.061 s

          Partial memory accounting:
          | Residual value for overall tracked memory usage across tasks :     0.000000 MB (should be 0.000000 MB)
          | Peak values for overall tracked memory usage (after allocating zora_vector2):
          |   Minimum:       29.908 MB (on task 56)
          |   Maximum:       38.909 MB (on task 33)
          |   Average:       34.109 MB
          | Largest tracked array allocation (hamiltonian_shell):
          |   Minimum:        8.471 MB (on task  1)
          |   Maximum:        8.471 MB (on task  1)
          |   Average:        8.471 MB
          Note:  These values currently only include a subset of arrays which are explicitly tracked.
          The "true" memory usage will be greater.

          Have a nice day.
------------------------------------------------------------
