  MPI-parallelism will be employed.
------------------------------------------------------------
          Invoking FHI-aims ...
          Version 180607
          Git rev. (modified): 6724847 Fix JSON memory corruption in scf_solver
          Compiled on 2018/06/27 at 16:00:31 on host coe.psc.edu.

          When using FHI-aims, please cite the following reference:

          Volker Blum, Ralf Gehrke, Felix Hanke, Paula Havu,
          Ville Havu, Xinguo Ren, Karsten Reuter, and Matthias Scheffler,
          'Ab Initio Molecular Simulations with Numeric Atom-Centered Orbitals',
          Computer Physics Communications 180, 2175-2196 (2009)

          For any questions about FHI-aims, please visit the aimsclub website
          with its forums and wiki. Contributions to both the forums and the
          wiki are warmly encouraged - they are for you, and everyone is welcome there.

------------------------------------------------------------



  Date     :  20210620, Time     :  170759.839
  Time zero on CPU 1             :   0.436912000000000E+00  s.
  Internal wall clock time zero  :           393440879.839  s.

  FHI-aims created a unique identifier for this run for later identification
  aims_uuid : BC9B56BD-D492-47D9-A376-B21BF5203ABD

  Using       56 parallel tasks.
  Task        0 on host d021 reporting.
  Task        1 on host d021 reporting.
  Task        2 on host d021 reporting.
  Task        3 on host d021 reporting.
  Task        4 on host d021 reporting.
  Task        5 on host d021 reporting.
  Task        6 on host d021 reporting.
  Task        7 on host d021 reporting.
  Task        8 on host d021 reporting.
  Task        9 on host d021 reporting.
  Task       10 on host d021 reporting.
  Task       11 on host d021 reporting.
  Task       12 on host d021 reporting.
  Task       13 on host d021 reporting.
  Task       14 on host d021 reporting.
  Task       15 on host d021 reporting.
  Task       16 on host d021 reporting.
  Task       17 on host d021 reporting.
  Task       18 on host d021 reporting.
  Task       19 on host d021 reporting.
  Task       20 on host d021 reporting.
  Task       21 on host d021 reporting.
  Task       22 on host d021 reporting.
  Task       23 on host d021 reporting.
  Task       24 on host d021 reporting.
  Task       25 on host d021 reporting.
  Task       26 on host d021 reporting.
  Task       27 on host d021 reporting.
  Task       28 on host d021 reporting.
  Task       29 on host d021 reporting.
  Task       30 on host d021 reporting.
  Task       31 on host d021 reporting.
  Task       32 on host d021 reporting.
  Task       33 on host d021 reporting.
  Task       34 on host d021 reporting.
  Task       35 on host d021 reporting.
  Task       36 on host d021 reporting.
  Task       37 on host d021 reporting.
  Task       38 on host d021 reporting.
  Task       39 on host d021 reporting.
  Task       40 on host d021 reporting.
  Task       41 on host d021 reporting.
  Task       42 on host d021 reporting.
  Task       43 on host d021 reporting.
  Task       44 on host d021 reporting.
  Task       45 on host d021 reporting.
  Task       46 on host d021 reporting.
  Task       47 on host d021 reporting.
  Task       48 on host d021 reporting.
  Task       49 on host d021 reporting.
  Task       50 on host d021 reporting.
  Task       51 on host d021 reporting.
  Task       52 on host d021 reporting.
  Task       53 on host d021 reporting.
  Task       54 on host d021 reporting.
  Task       55 on host d021 reporting.

  Performing system and environment tests:
  *** Environment variable OMP_NUM_THREADS is not set
  *** For performance reasons you might want to set it to 1
  | Stacksize not measured: no C compiler
  | Checking for scalapack...
  | Testing pdtran()...
  | All pdtran() tests passed.

  Obtaining array dimensions for all initial allocations:
  
  -----------------------------------------------------------------------
  Parsing control.in (first pass over file, find array dimensions only).
  The contents of control.in will be repeated verbatim below
  unless switched off by setting 'verbatim_writeout .false.' .
  in the first line of control.in .
  -----------------------------------------------------------------------
  
  #===============================================================================
  # FHI-aims file: ./Runs/es/control.in
  # Created using the Atomic Simulation Environment (ASE)
  # Mon Jan 13 16:04:38 2020
  #===============================================================================
  xc                                 pbe
  relativistic                       zora scalar 1e-12
  occupation_type                    gaussian 0.0001
  load_balancing                     .true.
  KS_method                          scalapack_fast
  mixer                              pulay
  n_max_pulay                        5
  charge_mix_param                   0.4
  sc_accuracy_etot                   1e-6
  sc_accuracy_eev                    1e-4
  sc_accuracy_rho                    1e-6
  sc_iter_limit                      100
  prodbas_threshold                  1e-4
  basis_threshold                    1e-5
  override_illconditioning           .true.
  use_logsbt                         .true.
  spin                               none
  charge                             0
  #===============================================================================
  
  ################################################################################
  #
  #  FHI-aims code project
  # Volker Blum, Fritz Haber Institute Berlin, 2009
  #
  #  Suggested "tight" defaults for H atom (to be pasted into control.in file)
  #
  ################################################################################
    species        H
  #     global species definitions
      nucleus             1
      mass                1.00794
  #
      l_hartree           6
  #
      cut_pot             4.0  2.0  1.0
      basis_dep_cutoff    1e-4
  #
      radial_base         24 7.0
      radial_multiplier   2
      angular_grids       specified
        division   0.1930   50
        division   0.3175  110
        division   0.4293  194
        division   0.5066  302
        division   0.5626  434
  #      division   0.5922  590
  #      division   0.6227  974
  #      division   0.6868 1202
  #      outer_grid  770
        outer_grid  434
  ################################################################################
  #
  #  Definition of "minimal" basis
  #
  ################################################################################
  #     valence basis states
      valence      1  s   1.
  #     ion occupancy
      ion_occ      1  s   0.5
  ################################################################################
  #
  #  Suggested additional basis functions. For production calculations,
  #  uncomment them one after another (the most important basis functions are
  #  listed first).
  #
  #  Basis constructed for dimers: 0.5 A, 0.7 A, 1.0 A, 1.5 A, 2.5 A
  #
  ################################################################################
  #  "First tier" - improvements: -1014.90 meV to -62.69 meV
       hydro 2 s 2.1
       hydro 2 p 3.5
  #  "Second tier" - improvements: -12.89 meV to -1.83 meV
       hydro 1 s 0.85
       hydro 2 p 3.7
       hydro 2 s 1.2
       hydro 3 d 7
  #  "Third tier" - improvements: -0.25 meV to -0.12 meV
  #     hydro 4 f 11.2
  #     hydro 3 p 4.8
  #     hydro 4 d 9
  #     hydro 3 s 3.2
  ################################################################################
  #
  # For methods that use the localized form of the "resolution of identity" for
  # the two-electron Coulomb operator (RI_method LVL), particularly Hartree-Fock and
  # hybrid density functional calculations, the highest accuracy can be obtained by
  # uncommenting the line beginning with "for_aux"  below, thus adding an extra g radial
  # function to the construction of the product basis set for the expansion.
  # See Ref. New J. Phys. 17, 093020 (2015) for more information, particularly Figs. 1 and 6.
  #
  ################################################################################
  #
  # for_aux hydro 5 g 6.0
  ################################################################################
  #
  #  FHI-aims code project
  # Volker Blum, Fritz Haber Institute Berlin, 2009
  #
  #  Suggested "tight" defaults for C atom (to be pasted into control.in file)
  #
  ################################################################################
    species        C
  #     global species definitions
      nucleus             6
      mass                12.0107
  #
      l_hartree           6
  #
      cut_pot             4.0  2.0  1.0
      basis_dep_cutoff    1e-4
  #
      radial_base         34 7.0
      radial_multiplier   2
      angular_grids specified
        division   0.2187   50
        division   0.4416  110
        division   0.6335  194
        division   0.7727  302
        division   0.8772  434
  #      division   0.9334  590
  #      division   0.9924  770
  #      division   1.0230  974
  #      division   1.5020 1202
  #     outer_grid  974
        outer_grid  434
  ################################################################################
  #
  #  Definition of "minimal" basis
  #
  ################################################################################
  #     valence basis states
      valence      2  s   2.
      valence      2  p   2.
  #     ion occupancy
      ion_occ      2  s   1.
      ion_occ      2  p   1.
  ################################################################################
  #
  #  Suggested additional basis functions. For production calculations,
  #  uncomment them one after another (the most important basis functions are
  #  listed first).
  #
  #  Constructed for dimers: 1.0 A, 1.25 A, 1.5 A, 2.0 A, 3.0 A
  #
  ################################################################################
  #  "First tier" - improvements: -1214.57 meV to -155.61 meV
       hydro 2 p 1.7
       hydro 3 d 6
       hydro 2 s 4.9
  #  "Second tier" - improvements: -67.75 meV to -5.23 meV
       hydro 4 f 9.8
       hydro 3 p 5.2
       hydro 3 s 4.3
       hydro 5 g 14.4
       hydro 3 d 6.2
  #  "Third tier" - improvements: -2.43 meV to -0.60 meV
  #     hydro 2 p 5.6
  #     hydro 2 s 1.4
  #     hydro 3 d 4.9
  #     hydro 4 f 11.2
  #  "Fourth tier" - improvements: -0.39 meV to -0.18 meV
  #     hydro 2 p 2.1
  #     hydro 5 g 16.4
  #     hydro 4 d 13.2
  #     hydro 3 s 13.6
  #     hydro 4 f 17.6
  #  Further basis functions - improvements: -0.08 meV and below
  #     hydro 3 s 2
  #     hydro 3 p 6
  #     hydro 4 d 20
  ################################################################################
  #
  # For methods that use the localized form of the "resolution of identity" for
  # the two-electron Coulomb operator (RI_method LVL), particularly Hartree-Fock and
  # hybrid density functional calculations, the highest accuracy can be obtained by
  # uncommenting the line beginning with "for_aux"  below, thus adding an extra g radial
  # function to the construction of the product basis set for the expansion.
  # See Ref. New J. Phys. 17, 093020 (2015) for more information, particularly Figs. 1 and 6.
  #
  ################################################################################
  #
  # for_aux hydro 5 g 6.0
  
  -----------------------------------------------------------------------
  Completed first pass over input file control.in .
  -----------------------------------------------------------------------
  
  
  -----------------------------------------------------------------------
  Parsing geometry.in (first pass over file, find array dimensions only).
  The contents of geometry.in will be repeated verbatim below
  unless switched off by setting 'verbatim_writeout .false.' .
  in the first line of geometry.in .
  -----------------------------------------------------------------------
  
  #=======================================================
  # FHI-aims file: geometry.in
  # Created using the Atomic Simulation Environment (ASE)
  # Sun Jun 20 15:47:01 2021
  #=======================================================
  atom 28.9084010000000013 30.6829320000000010 50.9154240000000016 C
  atom 28.6526050000000012 30.1747440000000005 52.1826250000000016 C
  atom 29.1078499999999991 30.0008200000000009 50.0877550000000014 H
  atom 28.9412890000000012 32.0546769999999981 50.6927799999999991 C
  atom 28.6481260000000013 29.0948129999999985 52.3265320000000003 H
  atom 28.4180279999999996 31.0164690000000007 53.2358169999999973 C
  atom 28.7068289999999990 32.8939760000000021 51.7679680000000033 C
  atom 29.2430559999999993 32.6019190000000023 49.3301889999999972 C
  atom 28.2091479999999990 30.6248359999999984 54.2318569999999980 H
  atom 28.4427829999999986 32.3772980000000032 53.0314690000000013 C
  atom 28.7243929999999992 33.9748769999999993 51.6150159999999971 H
  atom 28.2494629999999987 32.5913669999999982 48.3345600000000033 C
  atom 30.5177890000000005 33.1308480000000003 49.0427869999999970 C
  atom 28.2465159999999997 33.0506779999999978 53.8661280000000033 H
  atom 26.8623919999999998 32.1111959999999996 48.6789079999999998 C
  atom 28.5212889999999994 33.1058629999999994 47.0564630000000008 C
  atom 31.5923650000000009 33.1262389999999982 50.0877550000000014 C
  atom 30.7837220000000009 33.6652339999999981 47.7663340000000005 C
  atom 26.4627860000000013 30.7971840000000014 48.4819620000000029 C
  atom 25.9366960000000013 33.0083490000000026 49.2165030000000030 C
  atom 27.4735900000000015 33.0271479999999968 45.9909370000000024 C
  atom 29.7851770000000009 33.6666889999999981 46.7787229999999994 C
  atom 32.1289459999999991 31.9308440000000004 50.5630579999999981 C
  atom 32.0896919999999994 34.3263639999999981 50.5947180000000003 C
  atom 32.1664310000000029 34.1617790000000028 47.4339099999999974 C
  atom 25.1657739999999990 30.3894200000000012 48.7950620000000015 C
  atom 27.1721760000000003 30.0744399999999992 48.0788170000000008 H
  atom 24.6459319999999984 32.5956130000000002 49.5355640000000008 C
  atom 26.2323340000000016 34.0414630000000002 49.3963859999999997 H
  atom 27.1991699999999987 31.8096789999999991 45.3817999999999984 C
  atom 26.7306050000000006 34.1444350000000014 45.6067060000000026 C
  atom 30.0949610000000014 34.2572309999999973 45.4340180000000018 C
  atom 31.7535039999999995 30.9885729999999988 50.1673150000000021 H
  atom 33.1413999999999973 31.9394549999999988 51.5169539999999984 C
  atom 31.6654489999999988 35.2653600000000012 50.2444080000000000 H
  atom 33.1013209999999987 34.3263639999999981 51.5414180000000002 C
  atom 33.1637970000000024 33.2638979999999975 47.0883279999999971 C
  atom 32.4848190000000017 35.5113279999999989 47.4663919999999990 C
  atom 24.8716690000000007 29.3542440000000013 48.6227850000000004 H
  atom 24.2645969999999984 31.2832979999999985 49.3194990000000004 C
  atom 23.9324170000000009 33.3071970000000022 49.9504269999999977 H
  atom 26.1948490000000014 31.6968829999999997 44.4283149999999978 C
  atom 27.7896210000000004 30.9360560000000007 45.6564559999999986 H
  atom 25.7374830000000010 34.0340640000000008 44.6423249999999996 C
  atom 26.9391309999999997 35.1069600000000008 46.0713190000000026 H
  atom 29.8490670000000016 35.5938019999999966 45.1852650000000011 C
  atom 30.6836430000000000 33.4991929999999982 44.4318099999999987 C
  atom 33.5526759999999982 30.9987609999999982 51.8851500000000030 H
  atom 33.6258780000000002 33.1377609999999976 52.0070589999999982 C
  atom 33.4678040000000010 35.2721519999999984 51.9379840000000002 H
  atom 32.9326379999999972 32.2010689999999968 47.0400169999999989 H
  atom 34.4522029999999972 33.6932509999999965 46.7906469999999999 C
  atom 31.7140149999999998 36.2346780000000024 47.7336469999999977 H
  atom 33.7744050000000016 35.9431060000000002 47.1845399999999984 C
  atom 23.2506100000000018 30.9684400000000011 49.5649620000000013 H
  atom 25.9964599999999990 30.7313249999999982 43.9634969999999967 H
  atom 25.4722569999999990 32.8030120000000025 44.0601199999999977 C
  atom 25.1691929999999999 34.9093859999999978 44.3288140000000013 H
  atom 29.3846279999999993 36.2160000000000011 45.9510539999999992 H
  atom 30.2038800000000016 36.1602079999999972 43.9511619999999965 C
  atom 30.8927590000000016 32.4440049999999971 44.6108710000000031 H
  atom 31.0384560000000000 34.0825790000000026 43.2145650000000003 C
  atom 34.3982150000000004 33.1410359999999997 52.7738760000000013 H
  atom 35.2218289999999996 32.9682030000000026 46.5264749999999978 H
  atom 34.7551500000000004 35.0358870000000024 46.8547879999999992 C
  atom 34.0107500000000016 37.0055710000000033 47.2363459999999975 H
  atom 24.7164229999999989 32.7323019999999971 43.2811740000000000 H
  atom 30.0058450000000008 37.2196410000000029 43.7879310000000004 H
  atom 30.7979850000000006 35.4094479999999976 42.9855480000000014 C
  atom 31.5152730000000005 33.4762699999999995 42.4448700000000017 H
  atom 35.7683109999999971 35.3753659999999996 46.6422170000000023 H
  atom 31.0863149999999990 35.8533540000000031 42.0318579999999997 H
  
  -----------------------------------------------------------------------
  Completed first pass over input file geometry.in .
  -----------------------------------------------------------------------
  

  Basic array size parameters:
  | Number of species                 :        2
  | Number of atoms                   :       72
  | Max. basis fn. angular momentum   :        4
  | Max. atomic/ionic basis occupied n:        2
  | Max. number of basis fn. types    :        2
  | Max. radial fns per species/type  :        8
  | Max. logarithmic grid size        :     1277
  | Max. radial integration grid size :       69
  | Max. angular integration grid size:      434
  | Max. angular grid division number :        8
  | Radial grid for Hartree potential :     1277
  | Number of spin channels           :        1

------------------------------------------------------------
          Reading file control.in.
------------------------------------------------------------
  XC: Using PBE gradient-corrected functionals.
  Scalar relativistic treatment of kinetic energy: ZORA.
  Threshold value for ZORA:   0.100000E-11
  Occupation type: Gaussian broadening, width =   0.100000E-03 eV.
  Since 'load_balancing .true.' is present in control.in, automatically turning on 'use_local_index .true.'.
  Using load balancing for integrations.
  Kohn-Sham electronic structure solved by the ELSI library.
  Using pulay charge density mixing.
  Pulay mixing - number of memorized iterations:    5
  Charge density mixing - mixing parameter:     0.4000
  Convergence accuracy of total energy:  0.1000E-05
  Convergence accuracy of sum of eigenvalues:  0.1000E-03
  Convergence accuracy of self-consistent charge density:  0.1000E-05
  Maximum number of s.-c. iterations  :   100
  * Ignoring prodbas_threshold
  Threshold for basis singularities:  0.1000E-04
  override_illconditioning: Explicitly overriding any built-in checks for an ill-conditioned overlap matrix.
  *** WARNING: If you use this flag, you should really know what you are doing.
  *** DO NOT keep this flag set by default in all your control.in files.
  Using 1D integrations for auxiliary 2-center integrals.
  Spin treatment: No spin polarisation.
  Charge =   0.000000E+00: Neutral system requested explicitly.
 
  Reading configuration options for species H                   .
  | Found nuclear charge :   1.0000
  | Found atomic mass :    1.00794000000000      amu
  | Found l_max for Hartree potential  :   6
  | Found cutoff potl. onset [A], width [A], scale factor :    4.00000    2.00000    1.00000
  | Threshold for basis-dependent cutoff potential is   0.100000E-03
  | Found data for basic radial integration grid :    24 points, outermost radius =    7.000 A
  | Found multiplier for basic radial grid :   2
  | Found angular grid specification: user-specified.
  | Specified grid contains     6 separate shells.
  | Check grid settings after all constraints further below.
  | Found free-atom valence shell :  1 s   1.000
  | No ionic wave fns used. Skipping ion_occ.
  | Found hydrogenic basis function :  2 s   2.100
  | Found hydrogenic basis function :  2 p   3.500
  | Found hydrogenic basis function :  1 s   0.850
  | Found hydrogenic basis function :  2 p   3.700
  | Found hydrogenic basis function :  2 s   1.200
  | Found hydrogenic basis function :  3 d   7.000
  Species H                   : Missing cutoff potential type.
  Defaulting to exp(1/x)/(1-x)^2 type cutoff potential.
  Species H : No 'logarithmic' tag. Using default grid for free atom:
  | Default logarithmic grid data [bohr] : 0.1000E-03 0.1000E+03 0.1012E+01
  Species H : On-site basis accuracy parameter (for Gram-Schmidt orthonormalisation) not specified.
  Using default value basis_acc =  0.1000000E-03.
  Species H                   : Using default innermost maximum threshold i_radial=  2 for radial functions.
  Species H                   : Default cutoff onset for free atom density etc. : 0.40000000E+01 AA.
  Species H                   : Basic radial grid will be enhanced according to radial_multiplier =   2, to contain    49 grid points.
 
  Reading configuration options for species C                   .
  | Found nuclear charge :   6.0000
  | Found atomic mass :    12.0107000000000      amu
  | Found l_max for Hartree potential  :   6
  | Found cutoff potl. onset [A], width [A], scale factor :    4.00000    2.00000    1.00000
  | Threshold for basis-dependent cutoff potential is   0.100000E-03
  | Found data for basic radial integration grid :    34 points, outermost radius =    7.000 A
  | Found multiplier for basic radial grid :   2
  | Found angular grid specification: user-specified.
  | Specified grid contains     6 separate shells.
  | Check grid settings after all constraints further below.
  | Found free-atom valence shell :  2 s   2.000
  | Found free-atom valence shell :  2 p   2.000
  | No ionic wave fns used. Skipping ion_occ.
  | No ionic wave fns used. Skipping ion_occ.
  | Found hydrogenic basis function :  2 p   1.700
  | Found hydrogenic basis function :  3 d   6.000
  | Found hydrogenic basis function :  2 s   4.900
  | Found hydrogenic basis function :  4 f   9.800
  | Found hydrogenic basis function :  3 p   5.200
  | Found hydrogenic basis function :  3 s   4.300
  | Found hydrogenic basis function :  5 g  14.400
  | Found hydrogenic basis function :  3 d   6.200
  Species C                   : Missing cutoff potential type.
  Defaulting to exp(1/x)/(1-x)^2 type cutoff potential.
  Species C : No 'logarithmic' tag. Using default grid for free atom:
  | Default logarithmic grid data [bohr] : 0.1000E-03 0.1000E+03 0.1012E+01
  Species C : On-site basis accuracy parameter (for Gram-Schmidt orthonormalisation) not specified.
  Using default value basis_acc =  0.1000000E-03.
  Species C                   : Using default innermost maximum threshold i_radial=  2 for radial functions.
  Species C                   : Default cutoff onset for free atom density etc. : 0.40000000E+01 AA.
  Species C                   : Basic radial grid will be enhanced according to radial_multiplier =   2, to contain    69 grid points.
 
  Finished reading input file 'control.in'. Consistency checks are next.
 
  MPI_IN_PLACE appears to work with this MPI implementation.
  | Keeping use_mpi_in_place .true. (see manual).
  Target number of points in a grid batch is not set. Defaulting to  100
  Method for grid partitioning is not set. Defaulting to parallel hash+maxmin partitioning.
  Batch size limit is not set. Defaulting to    200
  By default, will store active basis functions for each batch.
  If in need of memory, prune_basis_once .false. can be used to disable this option.
  communication_type for Hartree potential was not specified.
  Defaulting to calc_hartree .
  Pulay mixer: Number of initial linear mixing iterations not set.
  Defaulting to    0 iterations.
  Work space size for distributed Hartree potential not set.
  Defaulting to   0.200000E+03 MB.
  Algorithm-dependent basis array size parameters:
  | n_max_pulay                         :        5
  Presetting      1001 iterations before the initial mixing cycle
  is restarted anyway using the sc_init_iter criterion / keyword.
  Presetting a factor      1.000 between actual scf density residual
  and density convergence criterion sc_accuracy_rho below which sc_init_iter
  takes no effect.
  Calculation of forces was not defined in control.in. No forces will be calculated.
  Geometry relaxation not requested: no relaxation will be performed.
  No accuracy limit for integral partition fn. given. Defaulting to  0.1000E-14.
  No threshold value for u(r) in integrations given. Defaulting to  0.1000E-05.
  No accuracy for occupation numbers given. Defaulting to  0.1000E-12.
  No threshold value for occupation numbers given. Defaulting to  0.0000E+00.
  No accuracy for fermi level given. Defaulting to  0.1000E-19.
  Maximum # of iterations to find E_F not set. Defaulting to  200.
  Will not use alltoall communication since running on < 1024 CPUs.
  partition_type (choice of integration weights) for integrals was not specified.
  | Using a version of the partition function of Stratmann and coworkers ('stratmann_sparse').
  | At each grid point, the set of atoms used to build the partition table is smoothly restricted to
  | only those atoms whose free-atom density would be non-zero at that grid point.
  Partitioning for Hartree potential was not defined. Using partition_type for integrals.
  | Adjusted default value of keyword multip_moments_threshold to:       0.10000000E-11
  | This value may affect high angular momentum components of the Hartree potential in periodic systems.
  No q(lm)/r^(l+1) cutoff set for long-range Hartree potential.
  | Using default value of  0.100000E-09 .
  | Verify using the multipole_threshold keyword.
  Defaulting to new monopole extrapolation.
  Density update method: automatic selection selected.
 * Warning: use_local_index and/or load_balancing needs packed_matrix_format = index
 * Changing the default setting to packed_matrix_format = index
------------------------------------------------------------


------------------------------------------------------------
          Reading geometry description geometry.in.
------------------------------------------------------------
  Input structure read successfully.
  The structure contains       72 atoms,  and a total of        282.000 electrons.

  Input geometry:
  | No unit cell requested.
  | Atomic structure:
  |       Atom                x [A]            y [A]            z [A]
  |    1: Species C            28.90840100       30.68293200       50.91542400
  |    2: Species C            28.65260500       30.17474400       52.18262500
  |    3: Species H            29.10785000       30.00082000       50.08775500
  |    4: Species C            28.94128900       32.05467700       50.69278000
  |    5: Species H            28.64812600       29.09481300       52.32653200
  |    6: Species C            28.41802800       31.01646900       53.23581700
  |    7: Species C            28.70682900       32.89397600       51.76796800
  |    8: Species C            29.24305600       32.60191900       49.33018900
  |    9: Species H            28.20914800       30.62483600       54.23185700
  |   10: Species C            28.44278300       32.37729800       53.03146900
  |   11: Species H            28.72439300       33.97487700       51.61501600
  |   12: Species C            28.24946300       32.59136700       48.33456000
  |   13: Species C            30.51778900       33.13084800       49.04278700
  |   14: Species H            28.24651600       33.05067800       53.86612800
  |   15: Species C            26.86239200       32.11119600       48.67890800
  |   16: Species C            28.52128900       33.10586300       47.05646300
  |   17: Species C            31.59236500       33.12623900       50.08775500
  |   18: Species C            30.78372200       33.66523400       47.76633400
  |   19: Species C            26.46278600       30.79718400       48.48196200
  |   20: Species C            25.93669600       33.00834900       49.21650300
  |   21: Species C            27.47359000       33.02714800       45.99093700
  |   22: Species C            29.78517700       33.66668900       46.77872300
  |   23: Species C            32.12894600       31.93084400       50.56305800
  |   24: Species C            32.08969200       34.32636400       50.59471800
  |   25: Species C            32.16643100       34.16177900       47.43391000
  |   26: Species C            25.16577400       30.38942000       48.79506200
  |   27: Species H            27.17217600       30.07444000       48.07881700
  |   28: Species C            24.64593200       32.59561300       49.53556400
  |   29: Species H            26.23233400       34.04146300       49.39638600
  |   30: Species C            27.19917000       31.80967900       45.38180000
  |   31: Species C            26.73060500       34.14443500       45.60670600
  |   32: Species C            30.09496100       34.25723100       45.43401800
  |   33: Species H            31.75350400       30.98857300       50.16731500
  |   34: Species C            33.14140000       31.93945500       51.51695400
  |   35: Species H            31.66544900       35.26536000       50.24440800
  |   36: Species C            33.10132100       34.32636400       51.54141800
  |   37: Species C            33.16379700       33.26389800       47.08832800
  |   38: Species C            32.48481900       35.51132800       47.46639200
  |   39: Species H            24.87166900       29.35424400       48.62278500
  |   40: Species C            24.26459700       31.28329800       49.31949900
  |   41: Species H            23.93241700       33.30719700       49.95042700
  |   42: Species C            26.19484900       31.69688300       44.42831500
  |   43: Species H            27.78962100       30.93605600       45.65645600
  |   44: Species C            25.73748300       34.03406400       44.64232500
  |   45: Species H            26.93913100       35.10696000       46.07131900
  |   46: Species C            29.84906700       35.59380200       45.18526500
  |   47: Species C            30.68364300       33.49919300       44.43181000
  |   48: Species H            33.55267600       30.99876100       51.88515000
  |   49: Species C            33.62587800       33.13776100       52.00705900
  |   50: Species H            33.46780400       35.27215200       51.93798400
  |   51: Species H            32.93263800       32.20106900       47.04001700
  |   52: Species C            34.45220300       33.69325100       46.79064700
  |   53: Species H            31.71401500       36.23467800       47.73364700
  |   54: Species C            33.77440500       35.94310600       47.18454000
  |   55: Species H            23.25061000       30.96844000       49.56496200
  |   56: Species H            25.99646000       30.73132500       43.96349700
  |   57: Species C            25.47225700       32.80301200       44.06012000
  |   58: Species H            25.16919300       34.90938600       44.32881400
  |   59: Species H            29.38462800       36.21600000       45.95105400
  |   60: Species C            30.20388000       36.16020800       43.95116200
  |   61: Species H            30.89275900       32.44400500       44.61087100
  |   62: Species C            31.03845600       34.08257900       43.21456500
  |   63: Species H            34.39821500       33.14103600       52.77387600
  |   64: Species H            35.22182900       32.96820300       46.52647500
  |   65: Species C            34.75515000       35.03588700       46.85478800
  |   66: Species H            34.01075000       37.00557100       47.23634600
  |   67: Species H            24.71642300       32.73230200       43.28117400
  |   68: Species H            30.00584500       37.21964100       43.78793100
  |   69: Species C            30.79798500       35.40944800       42.98554800
  |   70: Species H            31.51527300       33.47627000       42.44487000
  |   71: Species H            35.76831100       35.37536600       46.64221700
  |   72: Species H            31.08631500       35.85335400       42.03185800
  |

  | The smallest distance between any two atoms is         1.08767725 AA.
  |
  | The first atom of this pair is atom number                     57 .
  | The second atom of this pair is atom number                    67 .

  Number of empty states per atom not set in control.in - providing a guess from actual geometry.
  | Total number of empty states used during s.c.f. cycle:      171
  If you use a very high smearing, use empty_states (per atom!) in control.in to increase this value.

  Structure-dependent array size parameters: 
  | Maximum number of distinct radial functions  :       18
  | Maximum number of basis functions            :     2088
  | Number of Kohn-Sham states (occupied + empty):      312
------------------------------------------------------------

------------------------------------------------------------
          Preparing all fixed parts of the calculation.
------------------------------------------------------------
  Determining machine precision:
    2.225073858507201E-308
  Setting up grids for atomic and cluster calculations.

  Creating wave function, potential, and density for free atoms.

  Species: H

  List of occupied orbitals and eigenvalues:
    n    l              occ      energy [Ha]    energy [eV]
    1    0           1.0000        -0.238386        -6.4868


  Species: C

  List of occupied orbitals and eigenvalues:
    n    l              occ      energy [Ha]    energy [eV]
    1    0           2.0000       -10.049212      -273.4530
    2    0           2.0000        -0.504761       -13.7352
    2    1           2.0000        -0.193631        -5.2690

  Creating fixed part of basis set: Ionic, confined, hydrogenic.
 
  H                    hydrogenic:
 
  List of hydrogenic basis orbitals: 
    n    l      effective z      eigenvalue [eV]  inner max. [A]     outer max. [A]     outer radius [A]   
    2    0         2.100000       -14.9965           0.193243           1.317208           5.373006
    2    1         3.500000       -41.6672           0.602369           0.602369           4.056063
    1    0         0.850000        -9.8292           0.624871           0.624871           5.373006
    2    1         3.700000       -46.5653           0.573622           0.573622           3.910002
    2    0         1.200000        -4.5995           0.334980           2.228188           5.505995
    3    2         7.000000       -74.0753           0.680699           0.680699           3.769201
 
 
  C                    hydrogenic:
 
  List of hydrogenic basis orbitals: 
    n    l      effective z      eigenvalue [eV]  inner max. [A]     outer max. [A]     outer radius [A]   
    2    1         1.700000        -9.8152           1.245706           1.245706           5.401630
    3    2         6.000000       -54.4226           0.792453           0.792453           4.178599
    2    0         4.900000       -81.6681           0.082559           0.562749           3.353238
    4    3         9.800000       -81.6681           0.863254           0.863254           4.028125
    3    1         5.200000       -40.8774           0.305389           1.215618           4.898362
    3    0         4.300000       -27.9508           0.091041           1.610311           5.401630
    5    4        14.400000      -112.8510           0.917666           0.917666           3.883070
    3    2         6.200000       -58.1113           0.763917           0.763917           4.077671
 

  Adding cutoff potential to free-atom effective potential.
  Creating atomic-like basis functions for current effective potential.

  Species H                   :

  List of atomic basis orbitals and eigenvalues:
    n    l      energy [Ha]    energy [eV]    outer radius [A]
    1    0        -0.238386        -6.4868       5.373006


  Species C                   :

  List of atomic basis orbitals and eigenvalues:
    n    l      energy [Ha]    energy [eV]    outer radius [A]
    1    0       -10.049212      -273.4530       1.934409
    2    0        -0.504761       -13.7352       5.271162
    2    1        -0.193631        -5.2690       5.401630

  Assembling full basis from fixed parts.
  | Species H :   atomic orbital   1 s accepted.
  | Species H :    hydro orbital   2 s accepted.
  | Species H :    hydro orbital   1 s accepted.
  | Species H :    hydro orbital   2 s accepted.
  | Species H :    hydro orbital   2 p accepted.
  | Species H :    hydro orbital   2 p accepted.
  | Species H :    hydro orbital   3 d accepted.
  | Species C :   atomic orbital   1 s accepted.
  | Species C :    hydro orbital   2 s accepted.
  | Species C :   atomic orbital   2 s accepted.
  | Species C :    hydro orbital   3 s accepted.
  | Species C :    hydro orbital   3 p accepted.
  | Species C :   atomic orbital   2 p accepted.
  | Species C :    hydro orbital   2 p accepted.
  | Species C :    hydro orbital   3 d accepted.
  | Species C :    hydro orbital   3 d accepted.
  | Species C :    hydro orbital   4 f accepted.
  | Species C :    hydro orbital   5 g accepted.
 
  Basis size parameters after reduction:
  | Total number of radial functions:       18
  | Total number of basis functions :     2088
 
  Per-task memory consumption for arrays in subroutine allocate_ext:
  |           4.461976MB.
  Testing on-site integration grid accuracy.
  |  Species  Function  <phi|h_atom|phi> (log., in eV)  <phi|h_atom|phi> (rad., in eV)
           1        1                 -6.4870767962                 -6.4871688290
           1        2                 13.5032046589                 13.5028982997
           1        3                 32.8195184817                 32.8119941656
           1        4                 33.8513856511                 33.7670005767 ***
           1        5                 28.8544614965                 28.8544615203
           1        6                 59.6326952547                 59.6327656460
           1        7                 60.2719308513                 60.2719305949
           2        8               -273.4529726040               -273.4529710464
           2        9                -10.7721037319                -10.7721022101
           2       10                 17.6044132601                 17.6044162063
           2       11                 53.7706460658                 53.7706913770
           2       12                 15.0973290362                 15.0973256030
           2       13                  3.8545134692                  3.8545724687
           2       14                 12.1156992592                 12.1182024431
           2       15                 29.4352039302                 29.4352041816
           2       16                 54.8741144708                 54.8740268729
           2       17                 59.3556032049                 59.3556031382
           2       18                 93.4551837154                 93.4551838009
 * Note: Onsite integrals marked "***" above are less accurate than
 * onsite_accuracy_threshold =    0.03000 eV. Usually, this is harmless.
 * When in doubt, tighten the "radial" and/or "radial_multiplier" flags to check.

  Preparing densities etc. for the partition functions (integrals / Hartree potential).

  Preparations completed.
  max(cpu_time)          :      0.202 s.
  Wall clock time (cpu1) :      0.226 s.
------------------------------------------------------------

------------------------------------------------------------
          Begin self-consistency loop: Initialization.

          Date     :  20210620, Time     :  170803.569
------------------------------------------------------------

  Initializing index lists of integration centers etc. from given atomic structure:
  | Number of centers in hartree potential         :        72
  | Number of centers in hartree multipole         :        72
  | Number of centers in electron density summation:        72
  | Number of centers in basis integrals           :        72
  | Number of centers in integrals                 :        72
  | Number of centers in hamiltonian               :        72
  * Using 56 tasks for Scalapack Eigenvalue solver.
  Detailed listing of tasks and assigned k-points:
  (for non-periodic systems, the "k-point" denotes an internal label only)
   Task     0 k-point     1 on d021
   Task     1 k-point     1 on d021
   Task     2 k-point     1 on d021
   Task     3 k-point     1 on d021
   Task     4 k-point     1 on d021
   Task     5 k-point     1 on d021
   Task     6 k-point     1 on d021
   Task     7 k-point     1 on d021
   Task     8 k-point     1 on d021
   Task     9 k-point     1 on d021
   Task    10 k-point     1 on d021
   Task    11 k-point     1 on d021
   Task    12 k-point     1 on d021
   Task    13 k-point     1 on d021
   Task    14 k-point     1 on d021
   Task    15 k-point     1 on d021
   Task    16 k-point     1 on d021
   Task    17 k-point     1 on d021
   Task    18 k-point     1 on d021
   Task    19 k-point     1 on d021
   Task    20 k-point     1 on d021
   Task    21 k-point     1 on d021
   Task    22 k-point     1 on d021
   Task    23 k-point     1 on d021
   Task    24 k-point     1 on d021
   Task    25 k-point     1 on d021
   Task    26 k-point     1 on d021
   Task    27 k-point     1 on d021
   Task    28 k-point     1 on d021
   Task    29 k-point     1 on d021
   Task    30 k-point     1 on d021
   Task    31 k-point     1 on d021
   Task    32 k-point     1 on d021
   Task    33 k-point     1 on d021
   Task    34 k-point     1 on d021
   Task    35 k-point     1 on d021
   Task    36 k-point     1 on d021
   Task    37 k-point     1 on d021
   Task    38 k-point     1 on d021
   Task    39 k-point     1 on d021
   Task    40 k-point     1 on d021
   Task    41 k-point     1 on d021
   Task    42 k-point     1 on d021
   Task    43 k-point     1 on d021
   Task    44 k-point     1 on d021
   Task    45 k-point     1 on d021
   Task    46 k-point     1 on d021
   Task    47 k-point     1 on d021
   Task    48 k-point     1 on d021
   Task    49 k-point     1 on d021
   Task    50 k-point     1 on d021
   Task    51 k-point     1 on d021
   Task    52 k-point     1 on d021
   Task    53 k-point     1 on d021
   Task    54 k-point     1 on d021
   Task    55 k-point     1 on d021
  Tasks:    56 split into      8 X      7 BLACS grid
  Calculating block size based on n_basis =         2088 max_nprow =            8 max_npcol =            7
  ScaLAPACK block size set to:           16
  Allocating        0.662 MB for ovlp
  Allocating        0.662 MB for ham
  Allocating        0.662 MB for eigenvec
  Required Scalapack workspace - INTEGER:            1 REAL:             1
  Partitioning the integration grid into batches with parallel hashing+maxmin method.
  | Number of batches:    10288
  | Maximal batch size:     200
  | Minimal batch size:       2
  | Average batch size:     115.939
  | Standard deviation of batch sizes:      34.344

  Integration load balanced across     56 MPI tasks.
  Work distribution over tasks is as follows:
  Task      0 has      21371 integration points.
  Task      1 has      21367 integration points.
  Task      2 has      21300 integration points.
  Task      3 has      21390 integration points.
  Task      4 has      21270 integration points.
  Task      5 has      21364 integration points.
  Task      6 has      21207 integration points.
  Task      7 has      21463 integration points.
  Task      8 has      21353 integration points.
  Task      9 has      21117 integration points.
  Task     10 has      21297 integration points.
  Task     11 has      21283 integration points.
  Task     12 has      21288 integration points.
  Task     13 has      21210 integration points.
  Task     14 has      21398 integration points.
  Task     15 has      21389 integration points.
  Task     16 has      21189 integration points.
  Task     17 has      21322 integration points.
  Task     18 has      21277 integration points.
  Task     19 has      21357 integration points.
  Task     20 has      21213 integration points.
  Task     21 has      21427 integration points.
  Task     22 has      21267 integration points.
  Task     23 has      21222 integration points.
  Task     24 has      21335 integration points.
  Task     25 has      21313 integration points.
  Task     26 has      21280 integration points.
  Task     27 has      21183 integration points.
  Task     28 has      21394 integration points.
  Task     29 has      21364 integration points.
  Task     30 has      21227 integration points.
  Task     31 has      21366 integration points.
  Task     32 has      21266 integration points.
  Task     33 has      21385 integration points.
  Task     34 has      21151 integration points.
  Task     35 has      21352 integration points.
  Task     36 has      21281 integration points.
  Task     37 has      21254 integration points.
  Task     38 has      21392 integration points.
  Task     39 has      21302 integration points.
  Task     40 has      21252 integration points.
  Task     41 has      21180 integration points.
  Task     42 has      21306 integration points.
  Task     43 has      21370 integration points.
  Task     44 has      21239 integration points.
  Task     45 has      21382 integration points.
  Task     46 has      21256 integration points.
  Task     47 has      21308 integration points.
  Task     48 has      21244 integration points.
  Task     49 has      21302 integration points.
  Task     50 has      21308 integration points.
  Task     51 has      21282 integration points.
  Task     52 has      21369 integration points.
  Task     53 has      21222 integration points.
  Task     54 has      21307 integration points.
  Task     55 has      21263 integration points.
  Initializing partition tables, free-atom densities, potentials, etc. across the integration grid (initialize_grid_storage).
  | initialize_grid_storage: Actual outermost partition radius vs. multipole_radius_free
  | (-- VB: in principle, multipole_radius_free should be larger, hence this output)
  | Species        1: Confinement radius =              6.000000000000000 AA, multipole_radius_free =              6.071692442739658 AA.
  | Species        1: outer_partition_radius set to              6.071692442739658 AA .
  | Species        2: Confinement radius =              6.000000000000000 AA, multipole_radius_free =              6.029870734432609 AA.
  | Species        2: outer_partition_radius set to              6.029870734432609 AA .
  | The sparse table of interatomic distances needs     61.6360 kbyte instead of    41.4720 kbyte of memory.
  | Using the partition_type stratmann_smoother will reduce your memory usage.
  | Net number of integration points:  1192776
  | of which are non-zero points    :   928831
  Renormalizing the initial density to the exact electron count on the 3D integration grid.
  | Initial density: Formal number of electrons (from input files) :     282.0000000000
  | Integrated number of electrons on 3D grid     :     281.9999170244
  | Charge integration error                      :      -0.0000829756
  | Normalization factor for density and gradient :       1.0000002942
  Obtaining max. number of non-zero basis functions in each batch (get_n_compute_maxes).
  | Maximal number of non-zero basis functions:     1291
  Selecting the method for density update.
  Loop over occupied states selected for charge density update.
  Hamiltonian matrix size:
  | Size of matrix non-packed:               2180916
  | Size of matrix packed:         1881701
  Allocating        5.212 MB for KS_eigenvector
  use_local_index: Max. local matrix size =      1346496
  Task:     0 matrix size:     265993
  Task:     1 matrix size:     491619
  Task:     2 matrix size:     746062
  Task:     3 matrix size:     521465
  Task:     4 matrix size:     769123
  Task:     5 matrix size:    1073106
  Task:     6 matrix size:    1336740
  Task:     7 matrix size:     251866
  Task:     8 matrix size:     688871
  Task:     9 matrix size:     516012
  Task:    10 matrix size:     622349
  Task:    11 matrix size:     900296
  Task:    12 matrix size:    1318808
  Task:    13 matrix size:    1151885
  Task:    14 matrix size:     270325
  Task:    15 matrix size:     690658
  Task:    16 matrix size:     981085
  Task:    17 matrix size:     499881
  Task:    18 matrix size:     323095
  Task:    19 matrix size:     634919
  Task:    20 matrix size:     341301
  Task:    21 matrix size:     689358
  Task:    22 matrix size:     576391
  Task:    23 matrix size:     395012
  Task:    24 matrix size:    1228857
  Task:    25 matrix size:    1346496
  Task:    26 matrix size:     561277
  Task:    27 matrix size:     558467
  Task:    28 matrix size:     520126
  Task:    29 matrix size:    1290042
  Task:    30 matrix size:    1218576
  Task:    31 matrix size:     383892
  Task:    32 matrix size:     700783
  Task:    33 matrix size:     826217
  Task:    34 matrix size:     758147
  Task:    35 matrix size:     438413
  Task:    36 matrix size:     440837
  Task:    37 matrix size:     317182
  Task:    38 matrix size:    1029268
  Task:    39 matrix size:     716236
  Task:    40 matrix size:     465275
  Task:    41 matrix size:     410566
  Task:    42 matrix size:    1283158
  Task:    43 matrix size:    1073337
  Task:    44 matrix size:     795271
  Task:    45 matrix size:     590732
  Task:    46 matrix size:     775757
  Task:    47 matrix size:     451229
  Task:    48 matrix size:     249319
  Task:    49 matrix size:    1232089
  Task:    50 matrix size:    1100276
  Task:    51 matrix size:     773673
  Task:    52 matrix size:     764269
  Task:    53 matrix size:     446218
  Task:    54 matrix size:     469260
  Task:    55 matrix size:     397769
  Integrating Hamiltonian matrix: batch-based integration.
  Time summed over all CPUs for integration: real work      281.602 s, elapsed      571.308 s
  Time get_set_sparse_local_matrix_scalapack:     0.032514 s
  Start compute_balanced_batch_distribution
  Done load balancing, time needed:      0.013 s
  Integrating overlap matrix with loadbalancing
  Time summed over all CPUs for integration: real work       82.492 s, elapsed       98.297 s
  Time get_set_full_local_matrix_scalapack:     0.033251 s

  Updating Kohn-Sham eigenvalues and eigenvectors using ELSI and the ELPA eigensolver.
  Overlap matrix is not singular
  | Lowest and highest eigenvalues :  0.14E+02,  0.89E-04
  Finished singularity check of overlap matrix
  | Time :     0.223 s
  Finished Cholesky decomposition
  | Time :     0.035 s
  Finished transformation to standard eigenproblem
  | Time :     0.048 s
  Starting ELPA eigensolver
  Finished solving standard eigenproblem
  | Time :     0.180 s
  Finished back-transformation of eigenvectors
  | Time :     0.008 s

  Obtaining occupation numbers and chemical potential using ELSI.
  | Chemical potential (Fermi level):    -8.17346138 eV
  Writing Kohn-Sham eigenvalues.

  State    Occupation    Eigenvalue [Ha]    Eigenvalue [eV]
      1       2.00000         -10.179272         -276.99209
      2       2.00000         -10.176487         -276.91630
      3       2.00000         -10.175121         -276.87914
      4       2.00000         -10.174642         -276.86609
      5       2.00000         -10.174595         -276.86481
      6       2.00000         -10.174552         -276.86364
      7       2.00000         -10.173934         -276.84684
      8       2.00000         -10.173908         -276.84611
      9       2.00000         -10.173834         -276.84411
     10       2.00000         -10.173785         -276.84277
     11       2.00000         -10.173346         -276.83084
     12       2.00000         -10.173186         -276.82648
     13       2.00000         -10.173096         -276.82403
     14       2.00000         -10.172823         -276.81661
     15       2.00000         -10.172734         -276.81417
     16       2.00000         -10.171887         -276.79113
     17       2.00000         -10.171812         -276.78908
     18       2.00000         -10.171757         -276.78760
     19       2.00000         -10.171719         -276.78656
     20       2.00000         -10.171582         -276.78283
     21       2.00000         -10.171551         -276.78199
     22       2.00000         -10.171510         -276.78087
     23       2.00000         -10.171344         -276.77635
     24       2.00000         -10.171292         -276.77493
     25       2.00000         -10.170652         -276.75753
     26       2.00000         -10.170538         -276.75442
     27       2.00000         -10.170461         -276.75232
     28       2.00000         -10.170432         -276.75154
     29       2.00000         -10.170417         -276.75112
     30       2.00000         -10.169725         -276.73231
     31       2.00000         -10.166716         -276.65043
     32       2.00000         -10.166257         -276.63794
     33       2.00000         -10.165782         -276.62500
     34       2.00000         -10.164834         -276.59921
     35       2.00000         -10.164029         -276.57729
     36       2.00000         -10.163757         -276.56990
     37       2.00000         -10.160078         -276.46979
     38       2.00000         -10.159695         -276.45936
     39       2.00000         -10.159613         -276.45715
     40       2.00000         -10.159316         -276.44906
     41       2.00000         -10.159251         -276.44729
     42       2.00000         -10.158963         -276.43945
     43       2.00000          -1.015234          -27.62592
     44       2.00000          -1.004583          -27.33610
     45       2.00000          -1.002256          -27.27277
     46       2.00000          -1.000041          -27.21250
     47       2.00000          -0.997297          -27.13782
     48       2.00000          -0.996393          -27.11323
     49       2.00000          -0.979716          -26.65944
     50       2.00000          -0.929236          -25.28581
     51       2.00000          -0.927132          -25.22855
     52       2.00000          -0.900896          -24.51463
     53       2.00000          -0.896929          -24.40669
     54       2.00000          -0.891154          -24.24953
     55       2.00000          -0.887155          -24.14072
     56       2.00000          -0.886387          -24.11981
     57       2.00000          -0.886039          -24.11034
     58       2.00000          -0.885798          -24.10380
     59       2.00000          -0.885023          -24.08269
     60       2.00000          -0.883455          -24.04003
     61       2.00000          -0.883266          -24.03490
     62       2.00000          -0.851846          -23.17992
     63       2.00000          -0.849650          -23.12016
     64       2.00000          -0.780693          -21.24374
     65       2.00000          -0.778684          -21.18906
     66       2.00000          -0.757031          -20.59986
     67       2.00000          -0.755400          -20.55548
     68       2.00000          -0.753026          -20.49087
     69       2.00000          -0.751622          -20.45267
     70       2.00000          -0.750682          -20.42711
     71       2.00000          -0.750209          -20.41422
     72       2.00000          -0.748343          -20.36345
     73       2.00000          -0.747245          -20.33356
     74       2.00000          -0.736402          -20.03852
     75       2.00000          -0.736199          -20.03300
     76       2.00000          -0.710534          -19.33461
     77       2.00000          -0.710005          -19.32022
     78       2.00000          -0.677580          -18.43790
     79       2.00000          -0.664595          -18.08456
     80       2.00000          -0.656685          -17.86930
     81       2.00000          -0.655930          -17.84876
     82       2.00000          -0.644384          -17.53457
     83       2.00000          -0.643180          -17.50181
     84       2.00000          -0.642617          -17.48649
     85       2.00000          -0.636147          -17.31043
     86       2.00000          -0.633860          -17.24821
     87       2.00000          -0.632154          -17.20178
     88       2.00000          -0.630342          -17.15247
     89       2.00000          -0.628056          -17.09026
     90       2.00000          -0.623685          -16.97133
     91       2.00000          -0.617996          -16.81653
     92       2.00000          -0.596262          -16.22510
     93       2.00000          -0.585420          -15.93008
     94       2.00000          -0.584953          -15.91738
     95       2.00000          -0.577396          -15.71173
     96       2.00000          -0.576329          -15.68270
     97       2.00000          -0.576039          -15.67481
     98       2.00000          -0.573824          -15.61455
     99       2.00000          -0.572079          -15.56707
    100       2.00000          -0.571501          -15.55134
    101       2.00000          -0.566126          -15.40508
    102       2.00000          -0.565660          -15.39239
    103       2.00000          -0.564721          -15.36684
    104       2.00000          -0.563852          -15.34318
    105       2.00000          -0.562590          -15.30884
    106       2.00000          -0.561935          -15.29103
    107       2.00000          -0.549885          -14.96314
    108       2.00000          -0.548413          -14.92308
    109       2.00000          -0.514618          -14.00347
    110       2.00000          -0.513012          -13.95977
    111       2.00000          -0.511257          -13.91201
    112       2.00000          -0.508614          -13.84009
    113       2.00000          -0.506922          -13.79406
    114       2.00000          -0.506430          -13.78065
    115       2.00000          -0.505772          -13.76276
    116       2.00000          -0.505394          -13.75247
    117       2.00000          -0.502986          -13.68694
    118       2.00000          -0.501290          -13.64079
    119       2.00000          -0.499058          -13.58006
    120       2.00000          -0.498490          -13.56461
    121       2.00000          -0.497685          -13.54271
    122       2.00000          -0.496268          -13.50413
    123       2.00000          -0.495220          -13.47562
    124       2.00000          -0.494597          -13.45866
    125       2.00000          -0.488499          -13.29274
    126       2.00000          -0.487238          -13.25842
    127       2.00000          -0.478485          -13.02023
    128       2.00000          -0.415125          -11.29614
    129       2.00000          -0.414756          -11.28607
    130       2.00000          -0.411893          -11.20817
    131       2.00000          -0.408713          -11.12164
    132       2.00000          -0.407107          -11.07793
    133       2.00000          -0.405853          -11.04382
    134       2.00000          -0.403830          -10.98877
    135       2.00000          -0.402435          -10.95082
    136       2.00000          -0.399757          -10.87794
    137       2.00000          -0.398944          -10.85581
    138       2.00000          -0.397866          -10.82649
    139       2.00000          -0.396569          -10.79119
    140       2.00000          -0.389380          -10.59556
    141       2.00000          -0.381387          -10.37806
    142       0.00000          -0.231558           -6.30101
    143       0.00000          -0.225341           -6.13183
    144       0.00000          -0.220647           -6.00410
    145       0.00000          -0.216899           -5.90211
    146       0.00000          -0.215189           -5.85559
    147       0.00000          -0.213015           -5.79643
    148       0.00000          -0.210927           -5.73962
    149       0.00000          -0.208715           -5.67943
    150       0.00000          -0.206256           -5.61251
    151       0.00000          -0.205245           -5.58499
    152       0.00000          -0.202588           -5.51270
    153       0.00000          -0.200012           -5.44260
    154       0.00000          -0.196956           -5.35944
    155       0.00000          -0.195021           -5.30678
    156       0.00000          -0.104857           -2.85331
    157       0.00000          -0.088526           -2.40891
    158       0.00000          -0.078536           -2.13707
    159       0.00000          -0.077329           -2.10422
    160       0.00000          -0.076738           -2.08815
    161       0.00000          -0.075415           -2.05214
    162       0.00000          -0.070601           -1.92114
    163       0.00000          -0.069492           -1.89098
    164       0.00000          -0.067023           -1.82380
    165       0.00000          -0.060925           -1.65786
    166       0.00000          -0.060130           -1.63623
    167       0.00000          -0.059070           -1.60737
    168       0.00000          -0.058118           -1.58147
    169       0.00000          -0.056956           -1.54984
    170       0.00000          -0.054336           -1.47856
    171       0.00000          -0.044115           -1.20044
    172       0.00000          -0.042086           -1.14521
    173       0.00000          -0.036025           -0.98029
    174       0.00000          -0.034025           -0.92587
    175       0.00000          -0.032420           -0.88218
    176       0.00000          -0.025104           -0.68311
    177       0.00000          -0.023938           -0.65138
    178       0.00000          -0.018528           -0.50418
    179       0.00000          -0.016600           -0.45170
    180       0.00000          -0.014217           -0.38688
    181       0.00000          -0.012059           -0.32815
    182       0.00000          -0.011365           -0.30927
    183       0.00000          -0.011017           -0.29978
    184       0.00000          -0.010398           -0.28294
    185       0.00000          -0.005952           -0.16196
    186       0.00000          -0.004466           -0.12153
    187       0.00000          -0.003032           -0.08250
    188       0.00000           0.001507            0.04100
    189       0.00000           0.007975            0.21702
    190       0.00000           0.008642            0.23515
    191       0.00000           0.014579            0.39671
    192       0.00000           0.017058            0.46418
    193       0.00000           0.019564            0.53237
    194       0.00000           0.020190            0.54940
    195       0.00000           0.024173            0.65779
    196       0.00000           0.026331            0.71650
    197       0.00000           0.027017            0.73517
    198       0.00000           0.029740            0.80926
    199       0.00000           0.031274            0.85102
    200       0.00000           0.036979            1.00625
    201       0.00000           0.041151            1.11977
    202       0.00000           0.043984            1.19687
    203       0.00000           0.047881            1.30291
    204       0.00000           0.052750            1.43540
    205       0.00000           0.053720            1.46180
    206       0.00000           0.055559            1.51185
    207       0.00000           0.057317            1.55966
    208       0.00000           0.057816            1.57326
    209       0.00000           0.058998            1.60542
    210       0.00000           0.059578            1.62119
    211       0.00000           0.065779            1.78993
    212       0.00000           0.066948            1.82173
    213       0.00000           0.068596            1.86659
    214       0.00000           0.071747            1.95235
    215       0.00000           0.074154            2.01784
    216       0.00000           0.075982            2.06757
    217       0.00000           0.076761            2.08877
    218       0.00000           0.078337            2.13166
    219       0.00000           0.081625            2.22114
    220       0.00000           0.082174            2.23608
    221       0.00000           0.085521            2.32714
    222       0.00000           0.087394            2.37812
    223       0.00000           0.090456            2.46144
    224       0.00000           0.091597            2.49247
    225       0.00000           0.092109            2.50642
    226       0.00000           0.093454            2.54302
    227       0.00000           0.094132            2.56145
    228       0.00000           0.096137            2.61603
    229       0.00000           0.099364            2.70383
    230       0.00000           0.101888            2.77251
    231       0.00000           0.103587            2.81875
    232       0.00000           0.103884            2.82681
    233       0.00000           0.105295            2.86522
    234       0.00000           0.107928            2.93686
    235       0.00000           0.109699            2.98507
    236       0.00000           0.112603            3.06409
    237       0.00000           0.113623            3.09184
    238       0.00000           0.116009            3.15676
    239       0.00000           0.117543            3.19850
    240       0.00000           0.119929            3.26343
    241       0.00000           0.121606            3.30906
    242       0.00000           0.122068            3.32163
    243       0.00000           0.123163            3.35144
    244       0.00000           0.124110            3.37721
    245       0.00000           0.124713            3.39362
    246       0.00000           0.125829            3.42399
    247       0.00000           0.126177            3.43346
    248       0.00000           0.127215            3.46169
    249       0.00000           0.128784            3.50440
    250       0.00000           0.129956            3.53627
    251       0.00000           0.132816            3.61410
    252       0.00000           0.134211            3.65206
    253       0.00000           0.135589            3.68956
    254       0.00000           0.137121            3.73125
    255       0.00000           0.139332            3.79141
    256       0.00000           0.141259            3.84386
    257       0.00000           0.142290            3.87192
    258       0.00000           0.145477            3.95864
    259       0.00000           0.149388            4.06505
    260       0.00000           0.149847            4.07754
    261       0.00000           0.151044            4.11011
    262       0.00000           0.151838            4.13172
    263       0.00000           0.153706            4.18254
    264       0.00000           0.158255            4.30633
    265       0.00000           0.161463            4.39362
    266       0.00000           0.162936            4.43372
    267       0.00000           0.166052            4.51850
    268       0.00000           0.166845            4.54009
    269       0.00000           0.170938            4.65146
    270       0.00000           0.174535            4.74934
    271       0.00000           0.177160            4.82076
    272       0.00000           0.180485            4.91126
    273       0.00000           0.183437            4.99156
    274       0.00000           0.186057            5.06287
    275       0.00000           0.187490            5.10188
    276       0.00000           0.187552            5.10355
    277       0.00000           0.189236            5.14938
    278       0.00000           0.192165            5.22907
    279       0.00000           0.193100            5.25451
    280       0.00000           0.193748            5.27216
    281       0.00000           0.195684            5.32483
    282       0.00000           0.196491            5.34679
    283       0.00000           0.197096            5.36325
    284       0.00000           0.198536            5.40245
    285       0.00000           0.199042            5.41620
    286       0.00000           0.200727            5.46206
    287       0.00000           0.201734            5.48945
    288       0.00000           0.203260            5.53098
    289       0.00000           0.205125            5.58172
    290       0.00000           0.206728            5.62535
    291       0.00000           0.210284            5.72212
    292       0.00000           0.214809            5.84526
    293       0.00000           0.219761            5.98000
    294       0.00000           0.222027            6.04167
    295       0.00000           0.222747            6.06126
    296       0.00000           0.225813            6.14469
    297       0.00000           0.227396            6.18776
    298       0.00000           0.228943            6.22987
    299       0.00000           0.230199            6.26403
    300       0.00000           0.230841            6.28152
    301       0.00000           0.232939            6.33860
    302       0.00000           0.233926            6.36544
    303       0.00000           0.236825            6.44434
    304       0.00000           0.239940            6.52911
    305       0.00000           0.244199            6.64499
    306       0.00000           0.247519            6.73533
    307       0.00000           0.249699            6.79466
    308       0.00000           0.252341            6.86655
    309       0.00000           0.255223            6.94497
    310       0.00000           0.257899            7.01779
    311       0.00000           0.260071            7.07690
    312       0.00000           0.271138            7.37803

  Highest occupied state (VBM) at    -10.37806274 eV
  | Occupation number:      2.00000000

  Lowest unoccupied state (CBM) at    -6.30101438 eV
  | Occupation number:      0.00000000

  Overall HOMO-LUMO gap:      4.07704836 eV.
  Calculating total energy contributions from superposition of free atom densities.

  Total energy components:
  | Sum of eigenvalues            :        -981.73097571 Ha      -26714.25905550 eV
  | XC energy correction          :        -232.89237877 Ha       -6337.32406587 eV
  | XC potential correction       :         299.14767698 Ha        8140.22246059 eV
  | Free-atom electrostatic energy:        -704.45660820 Ha      -19169.23962937 eV
  | Hartree energy correction     :           0.00000000 Ha           0.00000000 eV
  | Entropy correction            :           0.00000000 Ha           0.00000000 eV
  | ---------------------------
  | Total energy                  :       -1619.93228570 Ha      -44080.60029015 eV
  | Total energy, T -> 0          :       -1619.93228570 Ha      -44080.60029015 eV  <-- do not rely on this value for anything but (periodic) metals
  | Electronic free energy        :       -1619.93228570 Ha      -44080.60029015 eV

  Derived energy quantities:
  | Kinetic energy                :        1603.48632484 Ha       43633.08292560 eV
  | Electrostatic energy          :       -2990.52623176 Ha      -81376.35914989 eV
  | Energy correction for multipole
  | error in Hartree potential    :           0.00000000 Ha           0.00000000 eV
  | Sum of eigenvalues per atom                           :        -371.03137577 eV
  | Total energy (T->0) per atom                          :        -612.23055959 eV  <-- do not rely on this value for anything but (periodic) metals
  | Electronic free energy per atom                       :        -612.23055959 eV
  Initialize hartree_potential_storage
  Max. number of atoms included in rho_multipole:           72

  End scf initialization - timings             :  max(cpu_time)    wall_clock(cpu1)
  | Time for scf. initialization               :       15.825 s          18.553 s
  | Boundary condition initialization          :        0.001 s           0.003 s
  | Integration                                :       12.083 s          14.616 s
  | Solution of K.-S. eqns.                    :        0.492 s           0.606 s
  | Grid partitioning                          :        1.182 s           1.186 s
  | Preloading free-atom quantities on grid    :        0.026 s           0.029 s
  | Free-atom superposition energy             :        0.155 s           0.157 s
  | Total energy evaluation                    :        0.001 s           0.003 s

  Partial memory accounting:
  | Current value for overall tracked memory usage on task 0  :           8.261 MB
  | Peak value for overall tracked memory usage on task 0     :          42.344 MB after allocating zora_vector2
  | Largest tracked array allocation on task 0 so far         :          13.333 MB  when allocating hamiltonian_shell
  Note:  These values currently only include a subset of arrays which are explicitly tracked.
  The "true" memory usage will be greater.
------------------------------------------------------------

------------------------------------------------------------
          Begin self-consistency iteration #    1

  Date     :  20210620, Time     :  170822.125
------------------------------------------------------------
  Evaluating new KS density.
  Integration grid: deviation in total charge (<rho> - N_e) =   1.136868E-13
  Pulay mixing of updated and previous charge densities.

  Evaluating partitioned Hartree potential by multipole expansion.
  | Analytical far-field extrapolation by fixed multipoles:
  | Hartree multipole sum: apparent total charge =  -0.972263E-04
  Summing up the Hartree potential with load balancing.
  Time summed over all CPUs for potential: real work       52.912 s, elapsed       90.557 s
  | RMS charge density error from multipole expansion :   0.153294E-01

  Start compute_balanced_batch_distribution
  Done load balancing, time needed:      0.010 s
  Integrating Hamiltonian matrix: batch-based integration with load balancing
  Time summed over all CPUs for integration: real work      310.600 s, elapsed      350.326 s
  Time get_set_full_local_matrix_scalapack:     0.032868 s
  Start compute_balanced_batch_distribution
  Done load balancing, time needed:      0.011 s

  Updating Kohn-Sham eigenvalues and eigenvectors using ELSI and the ELPA eigensolver.
  Finished transformation to standard eigenproblem
  | Time :     0.051 s
  Starting ELPA eigensolver
  Finished solving standard eigenproblem
  | Time :     0.177 s
  Finished back-transformation of eigenvectors
  | Time :     0.008 s

  Obtaining occupation numbers and chemical potential using ELSI.
  | Chemical potential (Fermi level):    -3.66676043 eV
  Writing Kohn-Sham eigenvalues.

  State    Occupation    Eigenvalue [Ha]    Eigenvalue [eV]
      1       2.00000          -9.989917         -271.83948
      2       2.00000          -9.989824         -271.83694
      3       2.00000          -9.989525         -271.82880
      4       2.00000          -9.989261         -271.82163
      5       2.00000          -9.989070         -271.81643
      6       2.00000          -9.988989         -271.81422
      7       2.00000          -9.964571         -271.14976
      8       2.00000          -9.964154         -271.13843
      9       2.00000          -9.963997         -271.13414
     10       2.00000          -9.963376         -271.11725
     11       2.00000          -9.963313         -271.11555
     12       2.00000          -9.962664         -271.09787
     13       2.00000          -9.940008         -270.48139
     14       2.00000          -9.937682         -270.41810
     15       2.00000          -9.937125         -270.40294
     16       2.00000          -9.937117         -270.40270
     17       2.00000          -9.936318         -270.38098
     18       2.00000          -9.935963         -270.37130
     19       2.00000          -9.935760         -270.36580
     20       2.00000          -9.935599         -270.36141
     21       2.00000          -9.935565         -270.36049
     22       2.00000          -9.934912         -270.34272
     23       2.00000          -9.934610         -270.33450
     24       2.00000          -9.934572         -270.33347
     25       2.00000          -9.934003         -270.31797
     26       2.00000          -9.933783         -270.31199
     27       2.00000          -9.933782         -270.31197
     28       2.00000          -9.933756         -270.31124
     29       2.00000          -9.933644         -270.30820
     30       2.00000          -9.933561         -270.30596
     31       2.00000          -9.933200         -270.29613
     32       2.00000          -9.933097         -270.29331
     33       2.00000          -9.932903         -270.28803
     34       2.00000          -9.932689         -270.28223
     35       2.00000          -9.932049         -270.26480
     36       2.00000          -9.931976         -270.26281
     37       2.00000          -9.930943         -270.23472
     38       2.00000          -9.930379         -270.21936
     39       2.00000          -9.930356         -270.21875
     40       2.00000          -9.930083         -270.21132
     41       2.00000          -9.929845         -270.20484
     42       2.00000          -9.926977         -270.12679
     43       2.00000          -0.873693          -23.77438
     44       2.00000          -0.838441          -22.81513
     45       2.00000          -0.837088          -22.77832
     46       2.00000          -0.828143          -22.53490
     47       2.00000          -0.826055          -22.47810
     48       2.00000          -0.824310          -22.43061
     49       2.00000          -0.817722          -22.25136
     50       2.00000          -0.781252          -21.25896
     51       2.00000          -0.780058          -21.22647
     52       2.00000          -0.741496          -20.17713
     53       2.00000          -0.738952          -20.10790
     54       2.00000          -0.728772          -19.83089
     55       2.00000          -0.727698          -19.80167
     56       2.00000          -0.725309          -19.73666
     57       2.00000          -0.724585          -19.71696
     58       2.00000          -0.724384          -19.71148
     59       2.00000          -0.722759          -19.66727
     60       2.00000          -0.722499          -19.66019
     61       2.00000          -0.721953          -19.64534
     62       2.00000          -0.697118          -18.96955
     63       2.00000          -0.695441          -18.92392
     64       2.00000          -0.635474          -17.29213
     65       2.00000          -0.634085          -17.25433
     66       2.00000          -0.607382          -16.52771
     67       2.00000          -0.605588          -16.47890
     68       2.00000          -0.603055          -16.40996
     69       2.00000          -0.601971          -16.38047
     70       2.00000          -0.599281          -16.30726
     71       2.00000          -0.598762          -16.29313
     72       2.00000          -0.597764          -16.26598
     73       2.00000          -0.596213          -16.22378
     74       2.00000          -0.584245          -15.89813
     75       2.00000          -0.583961          -15.89038
     76       2.00000          -0.563404          -15.33101
     77       2.00000          -0.563138          -15.32376
     78       2.00000          -0.538572          -14.65528
[...]
    142       0.00000          -0.062746           -1.70740
    143       0.00000          -0.056589           -1.53988
    144       0.00000          -0.051291           -1.39570
    145       0.00000          -0.044719           -1.21686
    146       0.00000          -0.043396           -1.18086
    147       0.00000          -0.040384           -1.09891
    148       0.00000          -0.036573           -0.99520
    149       0.00000          -0.034660           -0.94313
    150       0.00000          -0.032307           -0.87911
    151       0.00000          -0.029762           -0.80988
    152       0.00000          -0.027117           -0.73788
    153       0.00000          -0.022278           -0.60621
    154       0.00000          -0.021606           -0.58794
    155       0.00000          -0.018785           -0.51117
    156       0.00000          -0.016248           -0.44212
    157       0.00000          -0.004774           -0.12992
    158       0.00000          -0.002408           -0.06552
    159       0.00000           0.000784            0.02134
    160       0.00000           0.009727            0.26469
    161       0.00000           0.009896            0.26928
    162       0.00000           0.011221            0.30533
    163       0.00000           0.015347            0.41761
    164       0.00000           0.016230            0.44164
    165       0.00000           0.017754            0.48311
    166       0.00000           0.029539            0.80380
    167       0.00000           0.030679            0.83482
    168       0.00000           0.033916            0.92290
    169       0.00000           0.034554            0.94027
    170       0.00000           0.035386            0.96290
    171       0.00000           0.041807            1.13762
    172       0.00000           0.046512            1.26567
    173       0.00000           0.050295            1.36860
    174       0.00000           0.051175            1.39254
    175       0.00000           0.055049            1.49796
    176       0.00000           0.056956            1.54985
    177       0.00000           0.062341            1.69638
    178       0.00000           0.065788            1.79018
    179       0.00000           0.067841            1.84603
    180       0.00000           0.078374            2.13266
    181       0.00000           0.081157            2.20839
    182       0.00000           0.084285            2.29352
    183       0.00000           0.088789            2.41607
    184       0.00000           0.089340            2.43107
    185       0.00000           0.089812            2.44391
    186       0.00000           0.091369            2.48628
    187       0.00000           0.094689            2.57663
    188       0.00000           0.099106            2.69680
    189       0.00000           0.099788            2.71536
    190       0.00000           0.100225            2.72727
    191       0.00000           0.107674            2.92996
    192       0.00000           0.109423            2.97756
    193       0.00000           0.111019            3.02098
    194       0.00000           0.111521            3.03463
    195       0.00000           0.114029            3.10290
    196       0.00000           0.120128            3.26885
    197       0.00000           0.121855            3.31585
    198       0.00000           0.124612            3.39088
    199       0.00000           0.126388            3.43918
    200       0.00000           0.135914            3.69841
    201       0.00000           0.137723            3.74764
    202       0.00000           0.146907            3.99755
    203       0.00000           0.147933            4.02545
    204       0.00000           0.151404            4.11990
    205       0.00000           0.152619            4.15296
    206       0.00000           0.153446            4.17548
    207       0.00000           0.156783            4.26629
    208       0.00000           0.158555            4.31451
    209       0.00000           0.165543            4.50465
    210       0.00000           0.170426            4.63753
    211       0.00000           0.172600            4.69669
    212       0.00000           0.174055            4.73628
    213       0.00000           0.176270            4.79654
    214       0.00000           0.178237            4.85009
    215       0.00000           0.180188            4.90318
    216       0.00000           0.181043            4.92642
    217       0.00000           0.181666            4.94338
    218       0.00000           0.184349            5.01639
    219       0.00000           0.186138            5.06507
    220       0.00000           0.189061            5.14461
    221       0.00000           0.189939            5.16852
    222       0.00000           0.191916            5.22231
    223       0.00000           0.192734            5.24456
    224       0.00000           0.195191            5.31142
    225       0.00000           0.196000            5.33342
    226       0.00000           0.196474            5.34634
    227       0.00000           0.198336            5.39701
    228       0.00000           0.202525            5.51100
    229       0.00000           0.203223            5.52997
    230       0.00000           0.204905            5.57576
    231       0.00000           0.206700            5.62458
    232       0.00000           0.211055            5.74310
    233       0.00000           0.213719            5.81560
    234       0.00000           0.215022            5.85105
    235       0.00000           0.217232            5.91118
    236       0.00000           0.217941            5.93048
    237       0.00000           0.220149            5.99055
    238       0.00000           0.223295            6.07617
    239       0.00000           0.223607            6.08464
    240       0.00000           0.226335            6.15890
    241       0.00000           0.226936            6.17524
    242       0.00000           0.230205            6.26420
    243       0.00000           0.231123            6.28918
    244       0.00000           0.232479            6.32606
    245       0.00000           0.232873            6.33679
    246       0.00000           0.234587            6.38344
    247       0.00000           0.234832            6.39011
    248       0.00000           0.236721            6.44150
    249       0.00000           0.237606            6.46559
    250       0.00000           0.238264            6.48350
    251       0.00000           0.238730            6.49616
    252       0.00000           0.243708            6.63163
    253       0.00000           0.245224            6.67290
    254       0.00000           0.247301            6.72941
    255       0.00000           0.247578            6.73695
    256       0.00000           0.251707            6.84928
    257       0.00000           0.255542            6.95366
    258       0.00000           0.257896            7.01771
    259       0.00000           0.260474            7.08786
    260       0.00000           0.261432            7.11392
    261       0.00000           0.263761            7.17729
    262       0.00000           0.264420            7.19523
    263       0.00000           0.269146            7.32383
    264       0.00000           0.272526            7.41582
    265       0.00000           0.274559            7.47113
    266       0.00000           0.276152            7.51447
    267       0.00000           0.279082            7.59421
    268       0.00000           0.280317            7.62780
    269       0.00000           0.281138            7.65015
    270       0.00000           0.282676            7.69200
    271       0.00000           0.283494            7.71427
    272       0.00000           0.284707            7.74728
    273       0.00000           0.285700            7.77430
    274       0.00000           0.286437            7.79436
    275       0.00000           0.287692            7.82850
    276       0.00000           0.289940            7.88966
    277       0.00000           0.294088            8.00253
    278       0.00000           0.296135            8.05824
    279       0.00000           0.298028            8.10976
    280       0.00000           0.300235            8.16981
    281       0.00000           0.303145            8.24900
    282       0.00000           0.305648            8.31710
    283       0.00000           0.309205            8.41391
    284       0.00000           0.309943            8.43399
    285       0.00000           0.317799            8.64775
    286       0.00000           0.320719            8.72720
    287       0.00000           0.322212            8.76785
    288       0.00000           0.323316            8.79787
    289       0.00000           0.325569            8.85920
    290       0.00000           0.329392            8.96321
    291       0.00000           0.331885            9.03105
    292       0.00000           0.332400            9.04507
    293       0.00000           0.335937            9.14131
    294       0.00000           0.339742            9.24484
    295       0.00000           0.340077            9.25395
    296       0.00000           0.343903            9.35809
    297       0.00000           0.346095            9.41773
    298       0.00000           0.347894            9.46669
    299       0.00000           0.351292            9.55915
    300       0.00000           0.353957            9.63165
    301       0.00000           0.356523            9.70147
    302       0.00000           0.359234            9.77526
    303       0.00000           0.361189            9.82846
    304       0.00000           0.363905            9.90237
    305       0.00000           0.364110            9.90795
    306       0.00000           0.367831           10.00920
    307       0.00000           0.368411           10.02496
    308       0.00000           0.371239           10.10193
    309       0.00000           0.372890           10.14686
    310       0.00000           0.377160           10.26304
    311       0.00000           0.379516           10.32715
    312       0.00000           0.384044           10.45036

  Highest occupied state (VBM) at     -5.55460669 eV
  | Occupation number:      2.00000000

  Lowest unoccupied state (CBM) at    -1.70740413 eV
  | Occupation number:      0.00000000

  Overall HOMO-LUMO gap:      3.84720256 eV.

  Total energy components:
  | Sum of eigenvalues            :        -919.07615503 Ha      -25009.33463918 eV
  | XC energy correction          :        -237.53323929 Ha       -6463.60830598 eV
  | XC potential correction       :         305.13928742 Ha        8303.26247600 eV
  | Free-atom electrostatic energy:        -704.45660820 Ha      -19169.23962937 eV
  | Hartree energy correction     :         -61.88239582 Ha       -1683.90566652 eV
  | Entropy correction            :           0.00000000 Ha           0.00000000 eV
  | ---------------------------
  | Total energy                  :       -1617.80911093 Ha      -44022.82576505 eV
  | Total energy, T -> 0          :       -1617.80911093 Ha      -44022.82576505 eV  <-- do not rely on this value for anything but (periodic) metals
  | Electronic free energy        :       -1617.80911093 Ha      -44022.82576505 eV

  Derived energy quantities:
  | Kinetic energy                :        1613.72885784 Ha       43911.79642938 eV
  | Electrostatic energy          :       -2994.00472947 Ha      -81471.01388845 eV
  | Energy correction for multipole
  | error in Hartree potential    :          -0.19219692 Ha          -5.22994431 eV
  | Sum of eigenvalues per atom                           :        -347.35186999 eV
  | Total energy (T->0) per atom                          :        -611.42813563 eV  <-- do not rely on this value for anything but (periodic) metals
  | Electronic free energy per atom                       :        -611.42813563 eV
  End evaluation of scaled ZORA corrections.
  | Time for scaled ZORA corrections           :       11.452 s          11.464 s
------------------------------------------------------------

  Energy and forces in a compact form:
  | Total energy uncorrected      :         -0.440228257650513E+05 eV
  | Total energy corrected        :         -0.440228257650513E+05 eV  <-- do not rely on this value for anything but (periodic) metals
  | Electronic free energy        :         -0.440228257650513E+05 eV

  ------------------------------------ 
  Start decomposition of the XC Energy 
  ------------------------------------ 
  X and C from original XC functional choice 
  Hartree-Fock Energy :          0.000000000 Ha              0.000000000 eV
  X Energy            :       -228.135063944 Ha          -6207.870942903 eV
  C Energy            :         -9.398175351 Ha           -255.737363078 eV
  Total XC Energy     :       -237.533239295 Ha          -6463.608305980 eV
  ------------------------------------ 
  LDA X and C from self-consistent density 
  X Energy LDA        :       -206.580439311 Ha          -5621.339764258 eV
  C Energy LDA        :        -18.134920273 Ha           -493.476288437 eV
  ------------------------------------ 
  End decomposition of the XC Energy 
  ------------------------------------ 

------------------------------------------------------------

------------------------------------------------------------------------------
  Final output of selected total energy values:

  The following output summarizes some interesting total energy values
  at the end of a run (AFTER all relaxation, molecular dynamics, etc.).

  | Total energy of the DFT / Hartree-Fock s.c.f. calculation      :         -44022.825765051 eV
  | Final zero-broadening corrected energy (caution - metals only) :         -44022.825765051 eV
  | For reference only, the value of 1 Hartree used in FHI-aims is :             27.211384500 eV

  Before relying on these values, please be sure to understand exactly which
  total energy value is referred to by a given number. Different objects may
  all carry the same name 'total energy'. Definitions:

  Total energy of the DFT / Hartree-Fock s.c.f. calculation:
  | Note that this energy does not include ANY quantities calculated after the
  | s.c.f. cycle, in particular not ANY RPA, MP2, etc. many-body perturbation terms.
  | Scalar relativistic effects have been included in the 'scaled ZORA' approximation.

  Final zero-broadening corrected energy:
  | For metallic systems only, a broadening of the occupation numbers at the Fermi
  | level can be extrapolated back to zero broadening by an electron-gas inspired
  | formula. For all systems that are not real metals, this value can be
  | meaningless and should be avoided.

------------------------------------------------------------------------------
  Methods described in the following list of references were used in this FHI-aims run.
  If you publish the results, please make sure to cite these reference if they apply.
  FHI-aims is an academic code, and for our developers (often, Ph.D. students
  and postdocs), scientific credit in the community is essential.
  Thank you for helping us!

  For any use of FHI-aims, please cite:

    Volker Blum, Ralf Gehrke, Felix Hanke, Paula Havu, Ville Havu,
    Xinguo Ren, Karsten Reuter, and Matthias Scheffler
    'Ab initio molecular simulations with numeric atom-centered orbitals'
    Computer Physics Communications 180, 2175-2196 (2009)
    http://dx.doi.org/10.1016/j.cpc.2009.06.022


  The scalable eigensolver library ELPA was used in your run.
  ELPA is essential especially for large systems on hundreds or thousands of CPUs.
  For ELPA, please cite:

    Andreas Marek, Volker Blum, Rainer Johanni, Ville Havu, Bruno Lang,
    Thomas Auckenthaler, Alexander Heinecke, Hans-Joachim Bungartz, and Hermann Lederer,
    'The ELPA Library - Scalable Parallel Eigenvalue Solutions
    for Electronic Structure Theory and Computational Science'
    The Journal of Physics: Condensed Matter 26, 213201 (2014).
    http://dx.doi.org/10.1088/0953-8984/26/21/213201


  The ELSI infrastructure was used in your run to solve the Kohn-Sham electronic structure.
  Please check out http://elsi-interchange.org to learn more.
  If scalability is important for your project, please acknowledge ELSI by citing:

    V. W-z. Yu, F. Corsetti, A. Garcia, W. P. Huhn, M. Jacquelin, W. Jia,
    B. Lange, L. Lin, J. Lu, W. Mi, A. Seifitokaldani, A. Vazquez-Mayagoitia,
    C. Yang, H. Yang, and V. Blum
    'ELSI: A unified software interface for Kohn-Sham electronic structure solvers'
    Computer Physics Communications 222, 267-285 (2018).
    http://dx.doi.org/10.1016/j.cpc.2017.09.007


  For the real-space grid partitioning and parallelization used in this calculation, please cite:

    Ville Havu, Volker Blum, Paula Havu, and Matthias Scheffler,
    'Efficient O(N) integration for all-electron electronic structure calculation'
    'using numerically tabulated basis functions'
    Journal of Computational Physics 228, 8367-8379 (2009).
    http://dx.doi.org/10.1016/j.jcp.2009.08.008

  Of course, there are many other important community references, e.g., those cited in the
  above references. Our list is limited to references that describe implementations in the
  FHI-aims code. The reason is purely practical (length of this list) - please credit others as well.

------------------------------------------------------------
          Leaving FHI-aims.
          Date     :  20210620, Time     :  171128.828

          Computational steps:
          | Number of self-consistency cycles          :           17
          | Number of SCF (re)initializations          :            1

          Detailed time accounting                     :  max(cpu_time)    wall_clock(cpu1)
          | Total time                                 :      199.121 s         208.989 s
          | Preparation time                           :        0.202 s           0.226 s
          | Boundary condition initalization           :        0.001 s           0.003 s
          | Grid partitioning                          :        1.182 s           1.186 s
          | Preloading free-atom quantities on grid    :        0.026 s           0.029 s
          | Free-atom superposition energy             :        0.155 s           0.157 s
          | Total time for integrations                :      111.805 s         114.339 s
          | Total time for solution of K.-S. equations :        5.902 s           6.022 s
          | Total time for density update              :       47.262 s          47.201 s
          | Total time for mixing                      :        0.204 s           0.223 s
          | Total time for Hartree multipole update    :        0.246 s           0.297 s
          | Total time for Hartree multipole sum       :       18.471 s          18.474 s
          | Total time for total energy evaluation     :        0.006 s           0.032 s
          | Total time for scaled ZORA corrections     :       11.452 s          11.464 s

          Partial memory accounting:
          | Residual value for overall tracked memory usage across tasks :     0.000000 MB (should be 0.000000 MB)
          | Peak values for overall tracked memory usage (after allocating zora_vector2):
          |   Minimum:       43.243 MB (on task 49)
          |   Maximum:       55.503 MB (on task  7)
          |   Average:       49.101 MB
          | Largest tracked array allocation (hamiltonian_shell):
          |   Minimum:       13.333 MB (on task  1)
          |   Maximum:       13.333 MB (on task  1)
          |   Average:       13.333 MB
          Note:  These values currently only include a subset of arrays which are explicitly tracked.
          The "true" memory usage will be greater.

          Have a nice day.
------------------------------------------------------------
