  MPI-parallelism will be employed.
------------------------------------------------------------
          Invoking FHI-aims ...
          Version 180607
          Git rev. (modified): 6724847 Fix JSON memory corruption in scf_solver
          Compiled on 2018/06/27 at 16:00:31 on host coe.psc.edu.

          When using FHI-aims, please cite the following reference:

          Volker Blum, Ralf Gehrke, Felix Hanke, Paula Havu,
          Ville Havu, Xinguo Ren, Karsten Reuter, and Matthias Scheffler,
          'Ab Initio Molecular Simulations with Numeric Atom-Centered Orbitals',
          Computer Physics Communications 180, 2175-2196 (2009)

          For any questions about FHI-aims, please visit the aimsclub website
          with its forums and wiki. Contributions to both the forums and the
          wiki are warmly encouraged - they are for you, and everyone is welcome there.

------------------------------------------------------------



  Date     :  20210620, Time     :  175426.620
  Time zero on CPU 1             :   0.212348000000000E+00  s.
  Internal wall clock time zero  :           393443666.620  s.

  FHI-aims created a unique identifier for this run for later identification
  aims_uuid : 61654A20-C2E9-4267-AB67-11743FED1DB4

  Using       56 parallel tasks.
  Task        0 on host f001 reporting.
  Task        1 on host f001 reporting.
  Task        2 on host f001 reporting.
  Task        3 on host f001 reporting.
  Task        4 on host f001 reporting.
  Task        5 on host f001 reporting.
  Task        6 on host f001 reporting.
  Task        7 on host f001 reporting.
  Task        8 on host f001 reporting.
  Task        9 on host f001 reporting.
  Task       10 on host f001 reporting.
  Task       11 on host f001 reporting.
  Task       12 on host f001 reporting.
  Task       13 on host f001 reporting.
  Task       14 on host f001 reporting.
  Task       15 on host f001 reporting.
  Task       16 on host f001 reporting.
  Task       17 on host f001 reporting.
  Task       18 on host f001 reporting.
  Task       19 on host f001 reporting.
  Task       20 on host f001 reporting.
  Task       21 on host f001 reporting.
  Task       22 on host f001 reporting.
  Task       23 on host f001 reporting.
  Task       24 on host f001 reporting.
  Task       25 on host f001 reporting.
  Task       26 on host f001 reporting.
  Task       27 on host f001 reporting.
  Task       28 on host f001 reporting.
  Task       29 on host f001 reporting.
  Task       30 on host f001 reporting.
  Task       31 on host f001 reporting.
  Task       32 on host f001 reporting.
  Task       33 on host f001 reporting.
  Task       34 on host f001 reporting.
  Task       35 on host f001 reporting.
  Task       36 on host f001 reporting.
  Task       37 on host f001 reporting.
  Task       38 on host f001 reporting.
  Task       39 on host f001 reporting.
  Task       40 on host f001 reporting.
  Task       41 on host f001 reporting.
  Task       42 on host f001 reporting.
  Task       43 on host f001 reporting.
  Task       44 on host f001 reporting.
  Task       45 on host f001 reporting.
  Task       46 on host f001 reporting.
  Task       47 on host f001 reporting.
  Task       48 on host f001 reporting.
  Task       49 on host f001 reporting.
  Task       50 on host f001 reporting.
  Task       51 on host f001 reporting.
  Task       52 on host f001 reporting.
  Task       53 on host f001 reporting.
  Task       54 on host f001 reporting.
  Task       55 on host f001 reporting.

  Performing system and environment tests:
  *** Environment variable OMP_NUM_THREADS is not set
  *** For performance reasons you might want to set it to 1
  | Stacksize not measured: no C compiler
  | Checking for scalapack...
  | Testing pdtran()...
  | All pdtran() tests passed.

  Obtaining array dimensions for all initial allocations:
  
  -----------------------------------------------------------------------
  Parsing control.in (first pass over file, find array dimensions only).
  The contents of control.in will be repeated verbatim below
  unless switched off by setting 'verbatim_writeout .false.' .
  in the first line of control.in .
  -----------------------------------------------------------------------
  
  #===============================================================================
  # FHI-aims file: ./Runs/es/control.in
  # Created using the Atomic Simulation Environment (ASE)
  # Mon Jan 13 16:04:38 2020
  #===============================================================================
  xc                                 pbe
  relativistic                       zora scalar 1e-12
  occupation_type                    gaussian 0.0001
  load_balancing                     .true.
  KS_method                          scalapack_fast
  mixer                              pulay
  n_max_pulay                        5
  charge_mix_param                   0.4
  sc_accuracy_etot                   1e-6
  sc_accuracy_eev                    1e-4
  sc_accuracy_rho                    1e-6
  sc_iter_limit                      100
  prodbas_threshold                  1e-4
  basis_threshold                    1e-5
  override_illconditioning           .true.
  use_logsbt                         .true.
  spin                               none
  charge                             0
  #===============================================================================
  
  ################################################################################
  #
  #  FHI-aims code project
  # Volker Blum, Fritz Haber Institute Berlin, 2009
  #
  #  Suggested "tight" defaults for H atom (to be pasted into control.in file)
  #
  ################################################################################
    species        H
  #     global species definitions
      nucleus             1
      mass                1.00794
  #
      l_hartree           6
  #
      cut_pot             4.0  2.0  1.0
      basis_dep_cutoff    1e-4
  #
      radial_base         24 7.0
      radial_multiplier   2
      angular_grids       specified
        division   0.1930   50
        division   0.3175  110
        division   0.4293  194
        division   0.5066  302
        division   0.5626  434
  #      division   0.5922  590
  #      division   0.6227  974
  #      division   0.6868 1202
  #      outer_grid  770
        outer_grid  434
  ################################################################################
  #
  #  Definition of "minimal" basis
  #
  ################################################################################
  #     valence basis states
      valence      1  s   1.
  #     ion occupancy
      ion_occ      1  s   0.5
  ################################################################################
  #
  #  Suggested additional basis functions. For production calculations,
  #  uncomment them one after another (the most important basis functions are
  #  listed first).
  #
  #  Basis constructed for dimers: 0.5 A, 0.7 A, 1.0 A, 1.5 A, 2.5 A
  #
  ################################################################################
  #  "First tier" - improvements: -1014.90 meV to -62.69 meV
       hydro 2 s 2.1
       hydro 2 p 3.5
  #  "Second tier" - improvements: -12.89 meV to -1.83 meV
       hydro 1 s 0.85
       hydro 2 p 3.7
       hydro 2 s 1.2
       hydro 3 d 7
  #  "Third tier" - improvements: -0.25 meV to -0.12 meV
  #     hydro 4 f 11.2
  #     hydro 3 p 4.8
  #     hydro 4 d 9
  #     hydro 3 s 3.2
  ################################################################################
  #
  # For methods that use the localized form of the "resolution of identity" for
  # the two-electron Coulomb operator (RI_method LVL), particularly Hartree-Fock and
  # hybrid density functional calculations, the highest accuracy can be obtained by
  # uncommenting the line beginning with "for_aux"  below, thus adding an extra g radial
  # function to the construction of the product basis set for the expansion.
  # See Ref. New J. Phys. 17, 093020 (2015) for more information, particularly Figs. 1 and 6.
  #
  ################################################################################
  #
  # for_aux hydro 5 g 6.0
  ################################################################################
  #
  #  FHI-aims code project
  # Volker Blum, Fritz Haber Institute Berlin, 2009
  #
  #  Suggested "tight" defaults for C atom (to be pasted into control.in file)
  #
  ################################################################################
    species        C
  #     global species definitions
      nucleus             6
      mass                12.0107
  #
      l_hartree           6
  #
      cut_pot             4.0  2.0  1.0
      basis_dep_cutoff    1e-4
  #
      radial_base         34 7.0
      radial_multiplier   2
      angular_grids specified
        division   0.2187   50
        division   0.4416  110
        division   0.6335  194
        division   0.7727  302
        division   0.8772  434
  #      division   0.9334  590
  #      division   0.9924  770
  #      division   1.0230  974
  #      division   1.5020 1202
  #     outer_grid  974
        outer_grid  434
  ################################################################################
  #
  #  Definition of "minimal" basis
  #
  ################################################################################
  #     valence basis states
      valence      2  s   2.
      valence      2  p   2.
  #     ion occupancy
      ion_occ      2  s   1.
      ion_occ      2  p   1.
  ################################################################################
  #
  #  Suggested additional basis functions. For production calculations,
  #  uncomment them one after another (the most important basis functions are
  #  listed first).
  #
  #  Constructed for dimers: 1.0 A, 1.25 A, 1.5 A, 2.0 A, 3.0 A
  #
  ################################################################################
  #  "First tier" - improvements: -1214.57 meV to -155.61 meV
       hydro 2 p 1.7
       hydro 3 d 6
       hydro 2 s 4.9
  #  "Second tier" - improvements: -67.75 meV to -5.23 meV
       hydro 4 f 9.8
       hydro 3 p 5.2
       hydro 3 s 4.3
       hydro 5 g 14.4
       hydro 3 d 6.2
  #  "Third tier" - improvements: -2.43 meV to -0.60 meV
  #     hydro 2 p 5.6
  #     hydro 2 s 1.4
  #     hydro 3 d 4.9
  #     hydro 4 f 11.2
  #  "Fourth tier" - improvements: -0.39 meV to -0.18 meV
  #     hydro 2 p 2.1
  #     hydro 5 g 16.4
  #     hydro 4 d 13.2
  #     hydro 3 s 13.6
  #     hydro 4 f 17.6
  #  Further basis functions - improvements: -0.08 meV and below
  #     hydro 3 s 2
  #     hydro 3 p 6
  #     hydro 4 d 20
  ################################################################################
  #
  # For methods that use the localized form of the "resolution of identity" for
  # the two-electron Coulomb operator (RI_method LVL), particularly Hartree-Fock and
  # hybrid density functional calculations, the highest accuracy can be obtained by
  # uncommenting the line beginning with "for_aux"  below, thus adding an extra g radial
  # function to the construction of the product basis set for the expansion.
  # See Ref. New J. Phys. 17, 093020 (2015) for more information, particularly Figs. 1 and 6.
  #
  ################################################################################
  #
  # for_aux hydro 5 g 6.0
  
  -----------------------------------------------------------------------
  Completed first pass over input file control.in .
  -----------------------------------------------------------------------
  
  
  -----------------------------------------------------------------------
  Parsing geometry.in (first pass over file, find array dimensions only).
  The contents of geometry.in will be repeated verbatim below
  unless switched off by setting 'verbatim_writeout .false.' .
  in the first line of geometry.in .
  -----------------------------------------------------------------------
  
  #=======================================================
  # FHI-aims file: geometry.in
  # Created using the Atomic Simulation Environment (ASE)
  # Sun Jun 20 15:47:02 2021
  #=======================================================
  atom 13.1103900000000007 27.4089780000000012 31.5334919999999990 C
  atom 12.7871849999999991 26.0422709999999995 31.6566539999999996 C
  atom 12.9024599999999996 28.0662710000000004 32.3790499999999994 H
  atom 13.6738710000000001 27.9324680000000001 30.3885719999999999 C
  atom 12.2383419999999994 25.5163960000000003 32.8261800000000008 C
  atom 13.0398160000000001 25.1620230000000014 30.5294559999999997 C
  atom 13.9557450000000003 27.0548660000000005 29.2752710000000000 C
  atom 14.0078490000000002 29.3228580000000001 30.2550829999999991 C
  atom 11.9211770000000001 24.1633029999999991 32.9553340000000006 C
  atom 12.0575969999999995 26.1835449999999987 33.6699529999999996 H
  atom 12.6946759999999994 23.7972420000000007 30.6341299999999990 C
  atom 13.6183820000000004 25.7149840000000012 29.3649009999999997 C
  atom 14.5676909999999999 27.6157059999999994 28.1084220000000009 C
  atom 13.7905259999999998 29.9844849999999994 31.0933729999999997 H
  atom 14.5728810000000006 29.7972080000000012 29.1280119999999982 C
  atom 11.3845109999999998 23.6303310000000018 34.1470460000000031 C
  atom 12.1488600000000009 23.2738179999999986 31.8268619999999984 C
  atom 12.9027790000000007 22.8968379999999989 29.4542760000000001 C
  atom 13.8131559999999993 25.0633270000000010 28.5127139999999990 H
  atom 14.8036899999999996 26.9501339999999985 27.2761239999999994 H
  atom 14.8670519999999993 28.9364659999999994 28.0361310000000010 C
  atom 14.8364429999999992 30.8523670000000010 29.0493470000000009 H
  atom 11.0810359999999992 22.2930619999999990 34.2828299999999970 C
  atom 11.2190560000000001 24.3047860000000000 34.9881409999999988 H
  atom 11.8146520000000006 21.9139429999999997 31.9804950000000012 C
  atom 11.8805049999999994 22.6655900000000017 28.5550420000000003 C
  atom 14.1267750000000003 22.2929829999999995 29.2352370000000015 C
  atom 15.3417689999999993 29.3474390000000014 27.1467139999999993 H
  atom 10.5327330000000003 21.7397129999999983 35.4871630000000025 C
  atom 11.3094859999999997 21.4024469999999987 33.1644289999999984 C
  atom 11.9597669999999994 21.2335870000000000 31.1428420000000017 H
  atom 10.9100269999999995 23.1370369999999994 28.7163259999999987 H
  atom 12.0866869999999995 21.8425289999999990 27.4550009999999993 C
  atom 14.3229430000000004 21.4772350000000003 28.1369809999999987 C
  atom 14.9443099999999998 22.4734380000000016 29.9339189999999995 H
  atom 10.2397240000000007 20.4256209999999996 35.5843149999999966 C
  atom 10.3491990000000005 22.4129129999999996 36.3235409999999987 H
  atom 10.9956390000000006 20.0155099999999990 33.3309399999999982 C
  atom 11.2698400000000003 21.6682610000000011 26.7527499999999989 H
  atom 13.3123769999999997 21.2558089999999993 27.2496040000000015 C
  atom 15.3004850000000001 21.0208539999999999 27.9796499999999995 H
  atom 9.8024330000000006 20.0344349999999984 36.5044589999999971 H
  atom 10.4876430000000003 19.5418860000000016 34.4942190000000011 C
  atom 11.1616060000000008 19.3470359999999992 32.4885689999999983 H
  atom 13.4752829999999992 20.6136519999999983 26.3826269999999994 H
  atom 10.2544660000000007 18.4825659999999985 34.5921360000000035 H
  
  -----------------------------------------------------------------------
  Completed first pass over input file geometry.in .
  -----------------------------------------------------------------------
  

  Basic array size parameters:
  | Number of species                 :        2
  | Number of atoms                   :       46
  | Max. basis fn. angular momentum   :        4
  | Max. atomic/ionic basis occupied n:        2
  | Max. number of basis fn. types    :        2
  | Max. radial fns per species/type  :        8
  | Max. logarithmic grid size        :     1277
  | Max. radial integration grid size :       69
  | Max. angular integration grid size:      434
  | Max. angular grid division number :        8
  | Radial grid for Hartree potential :     1277
  | Number of spin channels           :        1

------------------------------------------------------------
          Reading file control.in.
------------------------------------------------------------
  XC: Using PBE gradient-corrected functionals.
  Scalar relativistic treatment of kinetic energy: ZORA.
  Threshold value for ZORA:   0.100000E-11
  Occupation type: Gaussian broadening, width =   0.100000E-03 eV.
  Since 'load_balancing .true.' is present in control.in, automatically turning on 'use_local_index .true.'.
  Using load balancing for integrations.
  Kohn-Sham electronic structure solved by the ELSI library.
  Using pulay charge density mixing.
  Pulay mixing - number of memorized iterations:    5
  Charge density mixing - mixing parameter:     0.4000
  Convergence accuracy of total energy:  0.1000E-05
  Convergence accuracy of sum of eigenvalues:  0.1000E-03
  Convergence accuracy of self-consistent charge density:  0.1000E-05
  Maximum number of s.-c. iterations  :   100
  * Ignoring prodbas_threshold
  Threshold for basis singularities:  0.1000E-04
  override_illconditioning: Explicitly overriding any built-in checks for an ill-conditioned overlap matrix.
  *** WARNING: If you use this flag, you should really know what you are doing.
  *** DO NOT keep this flag set by default in all your control.in files.
  Using 1D integrations for auxiliary 2-center integrals.
  Spin treatment: No spin polarisation.
  Charge =   0.000000E+00: Neutral system requested explicitly.
 
  Reading configuration options for species H                   .
  | Found nuclear charge :   1.0000
  | Found atomic mass :    1.00794000000000      amu
  | Found l_max for Hartree potential  :   6
  | Found cutoff potl. onset [A], width [A], scale factor :    4.00000    2.00000    1.00000
  | Threshold for basis-dependent cutoff potential is   0.100000E-03
  | Found data for basic radial integration grid :    24 points, outermost radius =    7.000 A
  | Found multiplier for basic radial grid :   2
  | Found angular grid specification: user-specified.
  | Specified grid contains     6 separate shells.
  | Check grid settings after all constraints further below.
  | Found free-atom valence shell :  1 s   1.000
  | No ionic wave fns used. Skipping ion_occ.
  | Found hydrogenic basis function :  2 s   2.100
  | Found hydrogenic basis function :  2 p   3.500
  | Found hydrogenic basis function :  1 s   0.850
  | Found hydrogenic basis function :  2 p   3.700
  | Found hydrogenic basis function :  2 s   1.200
  | Found hydrogenic basis function :  3 d   7.000
  Species H                   : Missing cutoff potential type.
  Defaulting to exp(1/x)/(1-x)^2 type cutoff potential.
  Species H : No 'logarithmic' tag. Using default grid for free atom:
  | Default logarithmic grid data [bohr] : 0.1000E-03 0.1000E+03 0.1012E+01
  Species H : On-site basis accuracy parameter (for Gram-Schmidt orthonormalisation) not specified.
  Using default value basis_acc =  0.1000000E-03.
  Species H                   : Using default innermost maximum threshold i_radial=  2 for radial functions.
  Species H                   : Default cutoff onset for free atom density etc. : 0.40000000E+01 AA.
  Species H                   : Basic radial grid will be enhanced according to radial_multiplier =   2, to contain    49 grid points.
 
  Reading configuration options for species C                   .
  | Found nuclear charge :   6.0000
  | Found atomic mass :    12.0107000000000      amu
  | Found l_max for Hartree potential  :   6
  | Found cutoff potl. onset [A], width [A], scale factor :    4.00000    2.00000    1.00000
  | Threshold for basis-dependent cutoff potential is   0.100000E-03
  | Found data for basic radial integration grid :    34 points, outermost radius =    7.000 A
  | Found multiplier for basic radial grid :   2
  | Found angular grid specification: user-specified.
  | Specified grid contains     6 separate shells.
  | Check grid settings after all constraints further below.
  | Found free-atom valence shell :  2 s   2.000
  | Found free-atom valence shell :  2 p   2.000
  | No ionic wave fns used. Skipping ion_occ.
  | No ionic wave fns used. Skipping ion_occ.
  | Found hydrogenic basis function :  2 p   1.700
  | Found hydrogenic basis function :  3 d   6.000
  | Found hydrogenic basis function :  2 s   4.900
  | Found hydrogenic basis function :  4 f   9.800
  | Found hydrogenic basis function :  3 p   5.200
  | Found hydrogenic basis function :  3 s   4.300
  | Found hydrogenic basis function :  5 g  14.400
  | Found hydrogenic basis function :  3 d   6.200
  Species C                   : Missing cutoff potential type.
  Defaulting to exp(1/x)/(1-x)^2 type cutoff potential.
  Species C : No 'logarithmic' tag. Using default grid for free atom:
  | Default logarithmic grid data [bohr] : 0.1000E-03 0.1000E+03 0.1012E+01
  Species C : On-site basis accuracy parameter (for Gram-Schmidt orthonormalisation) not specified.
  Using default value basis_acc =  0.1000000E-03.
  Species C                   : Using default innermost maximum threshold i_radial=  2 for radial functions.
  Species C                   : Default cutoff onset for free atom density etc. : 0.40000000E+01 AA.
  Species C                   : Basic radial grid will be enhanced according to radial_multiplier =   2, to contain    69 grid points.
 
  Finished reading input file 'control.in'. Consistency checks are next.
 
  MPI_IN_PLACE appears to work with this MPI implementation.
  | Keeping use_mpi_in_place .true. (see manual).
  Target number of points in a grid batch is not set. Defaulting to  100
  Method for grid partitioning is not set. Defaulting to parallel hash+maxmin partitioning.
  Batch size limit is not set. Defaulting to    200
  By default, will store active basis functions for each batch.
  If in need of memory, prune_basis_once .false. can be used to disable this option.
  communication_type for Hartree potential was not specified.
  Defaulting to calc_hartree .
  Pulay mixer: Number of initial linear mixing iterations not set.
  Defaulting to    0 iterations.
  Work space size for distributed Hartree potential not set.
  Defaulting to   0.200000E+03 MB.
  Algorithm-dependent basis array size parameters:
  | n_max_pulay                         :        5
  Presetting      1001 iterations before the initial mixing cycle
  is restarted anyway using the sc_init_iter criterion / keyword.
  Presetting a factor      1.000 between actual scf density residual
  and density convergence criterion sc_accuracy_rho below which sc_init_iter
  takes no effect.
  Calculation of forces was not defined in control.in. No forces will be calculated.
  Geometry relaxation not requested: no relaxation will be performed.
  No accuracy limit for integral partition fn. given. Defaulting to  0.1000E-14.
  No threshold value for u(r) in integrations given. Defaulting to  0.1000E-05.
  No accuracy for occupation numbers given. Defaulting to  0.1000E-12.
  No threshold value for occupation numbers given. Defaulting to  0.0000E+00.
  No accuracy for fermi level given. Defaulting to  0.1000E-19.
  Maximum # of iterations to find E_F not set. Defaulting to  200.
  Will not use alltoall communication since running on < 1024 CPUs.
  partition_type (choice of integration weights) for integrals was not specified.
  | Using a version of the partition function of Stratmann and coworkers ('stratmann_sparse').
  | At each grid point, the set of atoms used to build the partition table is smoothly restricted to
  | only those atoms whose free-atom density would be non-zero at that grid point.
  Partitioning for Hartree potential was not defined. Using partition_type for integrals.
  | Adjusted default value of keyword multip_moments_threshold to:       0.10000000E-11
  | This value may affect high angular momentum components of the Hartree potential in periodic systems.
  No q(lm)/r^(l+1) cutoff set for long-range Hartree potential.
  | Using default value of  0.100000E-09 .
  | Verify using the multipole_threshold keyword.
  Defaulting to new monopole extrapolation.
  Density update method: automatic selection selected.
 * Warning: use_local_index and/or load_balancing needs packed_matrix_format = index
 * Changing the default setting to packed_matrix_format = index
------------------------------------------------------------


------------------------------------------------------------
          Reading geometry description geometry.in.
------------------------------------------------------------
  Input structure read successfully.
  The structure contains       46 atoms,  and a total of        186.000 electrons.

  Input geometry:
  | No unit cell requested.
  | Atomic structure:
  |       Atom                x [A]            y [A]            z [A]
  |    1: Species C            13.11039000       27.40897800       31.53349200
  |    2: Species C            12.78718500       26.04227100       31.65665400
  |    3: Species H            12.90246000       28.06627100       32.37905000
  |    4: Species C            13.67387100       27.93246800       30.38857200
  |    5: Species C            12.23834200       25.51639600       32.82618000
  |    6: Species C            13.03981600       25.16202300       30.52945600
  |    7: Species C            13.95574500       27.05486600       29.27527100
  |    8: Species C            14.00784900       29.32285800       30.25508300
  |    9: Species C            11.92117700       24.16330300       32.95533400
  |   10: Species H            12.05759700       26.18354500       33.66995300
  |   11: Species C            12.69467600       23.79724200       30.63413000
  |   12: Species C            13.61838200       25.71498400       29.36490100
  |   13: Species C            14.56769100       27.61570600       28.10842200
  |   14: Species H            13.79052600       29.98448500       31.09337300
  |   15: Species C            14.57288100       29.79720800       29.12801200
  |   16: Species C            11.38451100       23.63033100       34.14704600
  |   17: Species C            12.14886000       23.27381800       31.82686200
  |   18: Species C            12.90277900       22.89683800       29.45427600
  |   19: Species H            13.81315600       25.06332700       28.51271400
  |   20: Species H            14.80369000       26.95013400       27.27612400
  |   21: Species C            14.86705200       28.93646600       28.03613100
  |   22: Species H            14.83644300       30.85236700       29.04934700
  |   23: Species C            11.08103600       22.29306200       34.28283000
  |   24: Species H            11.21905600       24.30478600       34.98814100
  |   25: Species C            11.81465200       21.91394300       31.98049500
  |   26: Species C            11.88050500       22.66559000       28.55504200
  |   27: Species C            14.12677500       22.29298300       29.23523700
  |   28: Species H            15.34176900       29.34743900       27.14671400
  |   29: Species C            10.53273300       21.73971300       35.48716300
  |   30: Species C            11.30948600       21.40244700       33.16442900
  |   31: Species H            11.95976700       21.23358700       31.14284200
  |   32: Species H            10.91002700       23.13703700       28.71632600
  |   33: Species C            12.08668700       21.84252900       27.45500100
  |   34: Species C            14.32294300       21.47723500       28.13698100
  |   35: Species H            14.94431000       22.47343800       29.93391900
  |   36: Species C            10.23972400       20.42562100       35.58431500
  |   37: Species H            10.34919900       22.41291300       36.32354100
  |   38: Species C            10.99563900       20.01551000       33.33094000
  |   39: Species H            11.26984000       21.66826100       26.75275000
  |   40: Species C            13.31237700       21.25580900       27.24960400
  |   41: Species H            15.30048500       21.02085400       27.97965000
  |   42: Species H             9.80243300       20.03443500       36.50445900
  |   43: Species C            10.48764300       19.54188600       34.49421900
  |   44: Species H            11.16160600       19.34703600       32.48856900
  |   45: Species H            13.47528300       20.61365200       26.38262700
  |   46: Species H            10.25446600       18.48256600       34.59213600
  |

  | The smallest distance between any two atoms is         1.08811371 AA.
  |
  | The first atom of this pair is atom number                     38 .
  | The second atom of this pair is atom number                    44 .

  Number of empty states per atom not set in control.in - providing a guess from actual geometry.
  | Total number of empty states used during s.c.f. cycle:      111
  If you use a very high smearing, use empty_states (per atom!) in control.in to increase this value.

  Structure-dependent array size parameters: 
  | Maximum number of distinct radial functions  :       18
  | Maximum number of basis functions            :     1362
  | Number of Kohn-Sham states (occupied + empty):      204
------------------------------------------------------------

------------------------------------------------------------
          Preparing all fixed parts of the calculation.
------------------------------------------------------------
  Determining machine precision:
    2.225073858507201E-308
  Setting up grids for atomic and cluster calculations.

  Creating wave function, potential, and density for free atoms.

  Species: H

  List of occupied orbitals and eigenvalues:
    n    l              occ      energy [Ha]    energy [eV]
    1    0           1.0000        -0.238386        -6.4868


  Species: C

  List of occupied orbitals and eigenvalues:
    n    l              occ      energy [Ha]    energy [eV]
    1    0           2.0000       -10.049212      -273.4530
    2    0           2.0000        -0.504761       -13.7352
    2    1           2.0000        -0.193631        -5.2690

  Creating fixed part of basis set: Ionic, confined, hydrogenic.
 
  H                    hydrogenic:
 
  List of hydrogenic basis orbitals: 
    n    l      effective z      eigenvalue [eV]  inner max. [A]     outer max. [A]     outer radius [A]   
    2    0         2.100000       -14.9965           0.193243           1.317208           5.373006
    2    1         3.500000       -41.6672           0.602369           0.602369           4.056063
    1    0         0.850000        -9.8292           0.624871           0.624871           5.373006
    2    1         3.700000       -46.5653           0.573622           0.573622           3.910002
    2    0         1.200000        -4.5995           0.334980           2.228188           5.505995
    3    2         7.000000       -74.0753           0.680699           0.680699           3.769201
 
 
  C                    hydrogenic:
 
  List of hydrogenic basis orbitals: 
    n    l      effective z      eigenvalue [eV]  inner max. [A]     outer max. [A]     outer radius [A]   
    2    1         1.700000        -9.8152           1.245706           1.245706           5.401630
    3    2         6.000000       -54.4226           0.792453           0.792453           4.178599
    2    0         4.900000       -81.6681           0.082559           0.562749           3.353238
    4    3         9.800000       -81.6681           0.863254           0.863254           4.028125
    3    1         5.200000       -40.8774           0.305389           1.215618           4.898362
    3    0         4.300000       -27.9508           0.091041           1.610311           5.401630
    5    4        14.400000      -112.8510           0.917666           0.917666           3.883070
    3    2         6.200000       -58.1113           0.763917           0.763917           4.077671
 

  Adding cutoff potential to free-atom effective potential.
  Creating atomic-like basis functions for current effective potential.

  Species H                   :

  List of atomic basis orbitals and eigenvalues:
    n    l      energy [Ha]    energy [eV]    outer radius [A]
    1    0        -0.238386        -6.4868       5.373006


  Species C                   :

  List of atomic basis orbitals and eigenvalues:
    n    l      energy [Ha]    energy [eV]    outer radius [A]
    1    0       -10.049212      -273.4530       1.934409
    2    0        -0.504761       -13.7352       5.271162
    2    1        -0.193631        -5.2690       5.401630

  Assembling full basis from fixed parts.
  | Species H :   atomic orbital   1 s accepted.
  | Species H :    hydro orbital   2 s accepted.
  | Species H :    hydro orbital   1 s accepted.
  | Species H :    hydro orbital   2 s accepted.
  | Species H :    hydro orbital   2 p accepted.
  | Species H :    hydro orbital   2 p accepted.
  | Species H :    hydro orbital   3 d accepted.
  | Species C :   atomic orbital   1 s accepted.
  | Species C :    hydro orbital   2 s accepted.
  | Species C :   atomic orbital   2 s accepted.
  | Species C :    hydro orbital   3 s accepted.
  | Species C :    hydro orbital   3 p accepted.
  | Species C :   atomic orbital   2 p accepted.
  | Species C :    hydro orbital   2 p accepted.
  | Species C :    hydro orbital   3 d accepted.
  | Species C :    hydro orbital   3 d accepted.
  | Species C :    hydro orbital   4 f accepted.
  | Species C :    hydro orbital   5 g accepted.
 
  Basis size parameters after reduction:
  | Total number of radial functions:       18
  | Total number of basis functions :     1362
 
  Per-task memory consumption for arrays in subroutine allocate_ext:
  |           4.445376MB.
  Testing on-site integration grid accuracy.
  |  Species  Function  <phi|h_atom|phi> (log., in eV)  <phi|h_atom|phi> (rad., in eV)
           1        1                 -6.4870767962                 -6.4871688290
           1        2                 13.5032046589                 13.5028982997
           1        3                 32.8195184817                 32.8119941656
           1        4                 33.8513856511                 33.7670005767 ***
           1        5                 28.8544614965                 28.8544615203
           1        6                 59.6326952547                 59.6327656460
           1        7                 60.2719308513                 60.2719305949
           2        8               -273.4529726040               -273.4529710464
           2        9                -10.7721037319                -10.7721022101
           2       10                 17.6044132601                 17.6044162063
           2       11                 53.7706460658                 53.7706913770
           2       12                 15.0973290362                 15.0973256030
           2       13                  3.8545134692                  3.8545724687
           2       14                 12.1156992592                 12.1182024431
           2       15                 29.4352039302                 29.4352041816
           2       16                 54.8741144708                 54.8740268729
           2       17                 59.3556032049                 59.3556031382
           2       18                 93.4551837154                 93.4551838009
 * Note: Onsite integrals marked "***" above are less accurate than
 * onsite_accuracy_threshold =    0.03000 eV. Usually, this is harmless.
 * When in doubt, tighten the "radial" and/or "radial_multiplier" flags to check.

  Preparing densities etc. for the partition functions (integrals / Hartree potential).

  Preparations completed.
  max(cpu_time)          :      0.191 s.
  Wall clock time (cpu1) :      0.180 s.
------------------------------------------------------------

------------------------------------------------------------
          Begin self-consistency loop: Initialization.

          Date     :  20210620, Time     :  175426.988
------------------------------------------------------------

  Initializing index lists of integration centers etc. from given atomic structure:
  | Number of centers in hartree potential         :        46
  | Number of centers in hartree multipole         :        46
  | Number of centers in electron density summation:        46
  | Number of centers in basis integrals           :        46
  | Number of centers in integrals                 :        46
  | Number of centers in hamiltonian               :        46
  * Using 56 tasks for Scalapack Eigenvalue solver.
  Detailed listing of tasks and assigned k-points:
  (for non-periodic systems, the "k-point" denotes an internal label only)
   Task     0 k-point     1 on f001
   Task     1 k-point     1 on f001
   Task     2 k-point     1 on f001
   Task     3 k-point     1 on f001
   Task     4 k-point     1 on f001
   Task     5 k-point     1 on f001
   Task     6 k-point     1 on f001
   Task     7 k-point     1 on f001
   Task     8 k-point     1 on f001
   Task     9 k-point     1 on f001
   Task    10 k-point     1 on f001
   Task    11 k-point     1 on f001
   Task    12 k-point     1 on f001
   Task    13 k-point     1 on f001
   Task    14 k-point     1 on f001
   Task    15 k-point     1 on f001
   Task    16 k-point     1 on f001
   Task    17 k-point     1 on f001
   Task    18 k-point     1 on f001
   Task    19 k-point     1 on f001
   Task    20 k-point     1 on f001
   Task    21 k-point     1 on f001
   Task    22 k-point     1 on f001
   Task    23 k-point     1 on f001
   Task    24 k-point     1 on f001
   Task    25 k-point     1 on f001
   Task    26 k-point     1 on f001
   Task    27 k-point     1 on f001
   Task    28 k-point     1 on f001
   Task    29 k-point     1 on f001
   Task    30 k-point     1 on f001
   Task    31 k-point     1 on f001
   Task    32 k-point     1 on f001
   Task    33 k-point     1 on f001
   Task    34 k-point     1 on f001
   Task    35 k-point     1 on f001
   Task    36 k-point     1 on f001
   Task    37 k-point     1 on f001
   Task    38 k-point     1 on f001
   Task    39 k-point     1 on f001
   Task    40 k-point     1 on f001
   Task    41 k-point     1 on f001
   Task    42 k-point     1 on f001
   Task    43 k-point     1 on f001
   Task    44 k-point     1 on f001
   Task    45 k-point     1 on f001
   Task    46 k-point     1 on f001
   Task    47 k-point     1 on f001
   Task    48 k-point     1 on f001
   Task    49 k-point     1 on f001
   Task    50 k-point     1 on f001
   Task    51 k-point     1 on f001
   Task    52 k-point     1 on f001
   Task    53 k-point     1 on f001
   Task    54 k-point     1 on f001
   Task    55 k-point     1 on f001
  Tasks:    56 split into      8 X      7 BLACS grid
  Calculating block size based on n_basis =         1362 max_nprow =            8 max_npcol =            7
  ScaLAPACK block size set to:           16
  Allocating        0.293 MB for ovlp
  Allocating        0.293 MB for ham
  Allocating        0.293 MB for eigenvec
  Required Scalapack workspace - INTEGER:            1 REAL:             1
  Partitioning the integration grid into batches with parallel hashing+maxmin method.
  | Number of batches:     6954
  | Maximal batch size:     200
  | Minimal batch size:      10
  | Average batch size:     110.193
  | Standard deviation of batch sizes:      30.619

  Integration load balanced across     56 MPI tasks.
  Work distribution over tasks is as follows:
  Task      0 has      13721 integration points.
  Task      1 has      13795 integration points.
  Task      2 has      13596 integration points.
  Task      3 has      13740 integration points.
  Task      4 has      13618 integration points.
  Task      5 has      13775 integration points.
  Task      6 has      13567 integration points.
  Task      7 has      13800 integration points.
  Task      8 has      13681 integration points.
  Task      9 has      13616 integration points.
  Task     10 has      13790 integration points.
  Task     11 has      13663 integration points.
  Task     12 has      13728 integration points.
  Task     13 has      13524 integration points.
  Task     14 has      13780 integration points.
  Task     15 has      13707 integration points.
  Task     16 has      13639 integration points.
  Task     17 has      13791 integration points.
  Task     18 has      13626 integration points.
  Task     19 has      13754 integration points.
  Task     20 has      13536 integration points.
  Task     21 has      13704 integration points.
  Task     22 has      13794 integration points.
  Task     23 has      13614 integration points.
  Task     24 has      13725 integration points.
  Task     25 has      13664 integration points.
  Task     26 has      13737 integration points.
  Task     27 has      13505 integration points.
  Task     28 has      13752 integration points.
  Task     29 has      13713 integration points.
  Task     30 has      13626 integration points.
  Task     31 has      13763 integration points.
  Task     32 has      13707 integration points.
  Task     33 has      13666 integration points.
  Task     34 has      13615 integration points.
  Task     35 has      13815 integration points.
  Task     36 has      13634 integration points.
  Task     37 has      13600 integration points.
  Task     38 has      13839 integration points.
  Task     39 has      13499 integration points.
  Task     40 has      13726 integration points.
  Task     41 has      13612 integration points.
  Task     42 has      13757 integration points.
  Task     43 has      13717 integration points.
  Task     44 has      13661 integration points.
  Task     45 has      13706 integration points.
  Task     46 has      13651 integration points.
  Task     47 has      13804 integration points.
  Task     48 has      13504 integration points.
  Task     49 has      13758 integration points.
  Task     50 has      13762 integration points.
  Task     51 has      13656 integration points.
  Task     52 has      13768 integration points.
  Task     53 has      13597 integration points.
  Task     54 has      13643 integration points.
  Task     55 has      13543 integration points.
  Initializing partition tables, free-atom densities, potentials, etc. across the integration grid (initialize_grid_storage).
  | initialize_grid_storage: Actual outermost partition radius vs. multipole_radius_free
  | (-- VB: in principle, multipole_radius_free should be larger, hence this output)
  | Species        1: Confinement radius =              6.000000000000000 AA, multipole_radius_free =              6.071692442739658 AA.
  | Species        1: outer_partition_radius set to              6.071692442739658 AA .
  | Species        2: Confinement radius =              6.000000000000000 AA, multipole_radius_free =              6.029870734432609 AA.
  | Species        2: outer_partition_radius set to              6.029870734432609 AA .
  | The sparse table of interatomic distances needs     25.0280 kbyte instead of    16.9280 kbyte of memory.
  | Using the partition_type stratmann_smoother will reduce your memory usage.
  | Net number of integration points:   766284
  | of which are non-zero points    :   612566
  Renormalizing the initial density to the exact electron count on the 3D integration grid.
  | Initial density: Formal number of electrons (from input files) :     186.0000000000
  | Integrated number of electrons on 3D grid     :     185.9999929530
  | Charge integration error                      :      -0.0000070470
  | Normalization factor for density and gradient :       1.0000000379
  Obtaining max. number of non-zero basis functions in each batch (get_n_compute_maxes).
  | Maximal number of non-zero basis functions:      905
  Selecting the method for density update.
  Loop over occupied states selected for charge density update.
  Hamiltonian matrix size:
  | Size of matrix non-packed:                928203
  | Size of matrix packed:          815942
  Allocating        2.223 MB for KS_eigenvector
  use_local_index: Max. local matrix size =       613732
  Task:     0 matrix size:     130804
  Task:     1 matrix size:     157048
  Task:     2 matrix size:     244943
  Task:     3 matrix size:     370229
  Task:     4 matrix size:     481684
  Task:     5 matrix size:     533025
  Task:     6 matrix size:     547792
  Task:     7 matrix size:      94830
  Task:     8 matrix size:     232746
  Task:     9 matrix size:     186878
  Task:    10 matrix size:     437690
  Task:    11 matrix size:     529713
  Task:    12 matrix size:     343910
  Task:    13 matrix size:     447383
  Task:    14 matrix size:     131549
  Task:    15 matrix size:     333948
  Task:    16 matrix size:     406621
  Task:    17 matrix size:      82215
  Task:    18 matrix size:     120295
  Task:    19 matrix size:     164317
  Task:    20 matrix size:     140655
  Task:    21 matrix size:     444359
  Task:    22 matrix size:     436194
  Task:    23 matrix size:     533484
  Task:    24 matrix size:     231642
  Task:    25 matrix size:     138601
  Task:    26 matrix size:     274749
  Task:    27 matrix size:     333289
  Task:    28 matrix size:     580259
  Task:    29 matrix size:     492455
  Task:    30 matrix size:     581375
  Task:    31 matrix size:     369629
  Task:    32 matrix size:     432668
  Task:    33 matrix size:     153713
  Task:    34 matrix size:     185633
  Task:    35 matrix size:     328232
  Task:    36 matrix size:     524517
  Task:    37 matrix size:     474034
  Task:    38 matrix size:     127260
  Task:    39 matrix size:      91806
  Task:    40 matrix size:     169052
  Task:    41 matrix size:     147696
  Task:    42 matrix size:     613732
  Task:    43 matrix size:     343251
  Task:    44 matrix size:     441399
  Task:    45 matrix size:     563120
  Task:    46 matrix size:     343182
  Task:    47 matrix size:     368053
  Task:    48 matrix size:     247273
  Task:    49 matrix size:     607364
  Task:    50 matrix size:     600609
  Task:    51 matrix size:     494430
  Task:    52 matrix size:     314054
  Task:    53 matrix size:     294685
  Task:    54 matrix size:     169456
  Task:    55 matrix size:     162535
  Integrating Hamiltonian matrix: batch-based integration.
  Time summed over all CPUs for integration: real work      120.948 s, elapsed      227.914 s
  Time get_set_sparse_local_matrix_scalapack:     0.012607 s
  Start compute_balanced_batch_distribution
  Done load balancing, time needed:      0.008 s
  Integrating overlap matrix with loadbalancing
  Time summed over all CPUs for integration: real work       33.888 s, elapsed       40.040 s
  Time get_set_full_local_matrix_scalapack:     0.014201 s

  Updating Kohn-Sham eigenvalues and eigenvectors using ELSI and the ELPA eigensolver.
  Overlap matrix is not singular
  | Lowest and highest eigenvalues :  0.12E+02,  0.91E-04
  Finished singularity check of overlap matrix
  | Time :     0.080 s
  Finished Cholesky decomposition
  | Time :     0.017 s
  Finished transformation to standard eigenproblem
  | Time :     0.012 s
  Starting ELPA eigensolver
  Finished solving standard eigenproblem
  | Time :     0.078 s
  Finished back-transformation of eigenvectors
  | Time :     0.004 s

  Obtaining occupation numbers and chemical potential using ELSI.
  | Chemical potential (Fermi level):    -8.49274422 eV
  Writing Kohn-Sham eigenvalues.

  State    Occupation    Eigenvalue [Ha]    Eigenvalue [eV]
      1       2.00000         -10.177759         -276.95090
      2       2.00000         -10.176602         -276.91942
      3       2.00000         -10.173685         -276.84004
      4       2.00000         -10.173521         -276.83559
      5       2.00000         -10.173396         -276.83218
      6       2.00000         -10.172582         -276.81005
      7       2.00000         -10.172274         -276.80165
      8       2.00000         -10.171928         -276.79225
      9       2.00000         -10.171632         -276.78418
     10       2.00000         -10.171530         -276.78142
     11       2.00000         -10.171284         -276.77471
     12       2.00000         -10.170872         -276.76351
     13       2.00000         -10.170245         -276.74645
     14       2.00000         -10.169660         -276.73052
     15       2.00000         -10.169632         -276.72977
     16       2.00000         -10.169308         -276.72094
     17       2.00000         -10.169186         -276.71763
     18       2.00000         -10.168484         -276.69853
     19       2.00000         -10.168440         -276.69733
     20       2.00000         -10.166514         -276.64492
     21       2.00000         -10.166479         -276.64396
     22       2.00000         -10.166379         -276.64124
     23       2.00000         -10.165973         -276.63019
     24       2.00000         -10.165843         -276.62666
     25       2.00000         -10.165697         -276.62268
     26       2.00000         -10.163781         -276.57054
     27       2.00000         -10.163602         -276.56568
     28       2.00000         -10.158649         -276.43091
     29       2.00000          -1.016028          -27.64754
     30       2.00000          -1.004810          -27.34227
     31       2.00000          -1.002853          -27.28901
     32       2.00000          -0.982119          -26.72483
     33       2.00000          -0.955014          -25.98726
     34       2.00000          -0.931595          -25.34998
     35       2.00000          -0.919886          -25.03137
     36       2.00000          -0.911228          -24.79578
     37       2.00000          -0.902571          -24.56021
     38       2.00000          -0.888853          -24.18693
     39       2.00000          -0.879457          -23.93124
     40       2.00000          -0.873874          -23.77933
     41       2.00000          -0.865511          -23.55176
     42       2.00000          -0.831628          -22.62975
     43       2.00000          -0.808334          -21.99588
     44       2.00000          -0.774946          -21.08736
     45       2.00000          -0.761345          -20.71726
     46       2.00000          -0.760980          -20.70732
     47       2.00000          -0.754165          -20.52186
     48       2.00000          -0.732690          -19.93751
     49       2.00000          -0.727484          -19.79585
     50       2.00000          -0.720794          -19.61379
     51       2.00000          -0.714481          -19.44203
     52       2.00000          -0.675019          -18.36821
     53       2.00000          -0.669062          -18.20611
     54       2.00000          -0.666668          -18.14095
     55       2.00000          -0.654429          -17.80793
     56       2.00000          -0.639445          -17.40017
     57       2.00000          -0.636719          -17.32601
     58       2.00000          -0.635818          -17.30150
     59       2.00000          -0.613762          -16.70132
     60       2.00000          -0.610912          -16.62376
     61       2.00000          -0.599430          -16.31131
     62       2.00000          -0.586605          -15.96233
     63       2.00000          -0.579929          -15.78068
     64       2.00000          -0.576385          -15.68422
     65       2.00000          -0.576037          -15.67476
     66       2.00000          -0.571984          -15.56448
     67       2.00000          -0.565976          -15.40098
     68       2.00000          -0.562861          -15.31624
     69       2.00000          -0.561488          -15.27888
     70       2.00000          -0.558533          -15.19846
     71       2.00000          -0.554982          -15.10182
     72       2.00000          -0.532338          -14.48566
     73       2.00000          -0.526383          -14.32360
     74       2.00000          -0.519664          -14.14079
     75       2.00000          -0.517884          -14.09233
     76       2.00000          -0.516029          -14.04186
     77       2.00000          -0.511035          -13.90596
     78       2.00000          -0.505403          -13.75271
     79       2.00000          -0.499470          -13.59128
     80       2.00000          -0.497324          -13.53287
     81       2.00000          -0.492765          -13.40881
     82       2.00000          -0.481463          -13.10128
     83       2.00000          -0.473217          -12.87688
     84       2.00000          -0.462744          -12.59190
     85       2.00000          -0.445045          -12.11029
     86       2.00000          -0.431525          -11.74240
     87       2.00000          -0.423768          -11.53132
     88       2.00000          -0.409012          -11.12977
     89       2.00000          -0.405654          -11.03841
     90       2.00000          -0.404345          -11.00278
     91       2.00000          -0.389700          -10.60428
     92       2.00000          -0.372322          -10.13140
     93       2.00000          -0.331963           -9.03318
     94       0.00000          -0.284775           -7.74912
     95       0.00000          -0.239126           -6.50696
     96       0.00000          -0.222262           -6.04805
     97       0.00000          -0.211436           -5.75346
     98       0.00000          -0.210235           -5.72078
     99       0.00000          -0.200062           -5.44397
    100       0.00000          -0.180344           -4.90740
    101       0.00000          -0.172493           -4.69377
    102       0.00000          -0.159995           -4.35368
    103       0.00000          -0.125549           -3.41637
    104       0.00000          -0.075779           -2.06205
    105       0.00000          -0.074665           -2.03175
    106       0.00000          -0.069537           -1.89220
    107       0.00000          -0.066471           -1.80877
    108       0.00000          -0.064884           -1.76559
    109       0.00000          -0.064283           -1.74924
    110       0.00000          -0.047430           -1.29064
    111       0.00000          -0.044783           -1.21860
    112       0.00000          -0.036171           -0.98427
    113       0.00000          -0.035640           -0.96981
    114       0.00000          -0.034438           -0.93710
    115       0.00000          -0.031792           -0.86510
    116       0.00000          -0.023017           -0.62631
    117       0.00000          -0.018855           -0.51308
    118       0.00000          -0.016081           -0.43758
    119       0.00000          -0.012564           -0.34190
    120       0.00000          -0.012121           -0.32983
    121       0.00000          -0.010225           -0.27823
    122       0.00000          -0.001883           -0.05123
    123       0.00000           0.000403            0.01098
    124       0.00000           0.001924            0.05237
    125       0.00000           0.003997            0.10877
    126       0.00000           0.009170            0.24952
    127       0.00000           0.013567            0.36916
    128       0.00000           0.015377            0.41844
    129       0.00000           0.027168            0.73928
    130       0.00000           0.038066            1.03583
    131       0.00000           0.038584            1.04994
    132       0.00000           0.040701            1.10754
    133       0.00000           0.042761            1.16358
    134       0.00000           0.049232            1.33967
    135       0.00000           0.050239            1.36706
    136       0.00000           0.052675            1.43336
    137       0.00000           0.055676            1.51503
    138       0.00000           0.059207            1.61110
    139       0.00000           0.062408            1.69820
    140       0.00000           0.063896            1.73871
    141       0.00000           0.068847            1.87343
    142       0.00000           0.069852            1.90076
    143       0.00000           0.072356            1.96892
    144       0.00000           0.074257            2.02064
    145       0.00000           0.077020            2.09582
    146       0.00000           0.080244            2.18355
    147       0.00000           0.082238            2.23781
    148       0.00000           0.083081            2.26074
    149       0.00000           0.085912            2.33778
    150       0.00000           0.087415            2.37870
    151       0.00000           0.093350            2.54017
    152       0.00000           0.097952            2.66541
    153       0.00000           0.102790            2.79705
    154       0.00000           0.105192            2.86242
    155       0.00000           0.106288            2.89224
    156       0.00000           0.106394            2.89514
    157       0.00000           0.110769            3.01417
    158       0.00000           0.117554            3.19880
    159       0.00000           0.118621            3.22785
    160       0.00000           0.121384            3.30302
    161       0.00000           0.122691            3.33858
    162       0.00000           0.122828            3.34231
    163       0.00000           0.128389            3.49365
    164       0.00000           0.132419            3.60330
    165       0.00000           0.134368            3.65633
    166       0.00000           0.139001            3.78241
    167       0.00000           0.141003            3.83690
    168       0.00000           0.143194            3.89652
    169       0.00000           0.147871            4.02377
    170       0.00000           0.151522            4.12313
    171       0.00000           0.153917            4.18830
    172       0.00000           0.154505            4.20430
    173       0.00000           0.155244            4.22440
    174       0.00000           0.161951            4.40690
    175       0.00000           0.163343            4.44478
    176       0.00000           0.165302            4.49811
    177       0.00000           0.169356            4.60841
    178       0.00000           0.170114            4.62905
    179       0.00000           0.177999            4.84359
    180       0.00000           0.179252            4.87771
    181       0.00000           0.181098            4.92794
    182       0.00000           0.185628            5.05120
    183       0.00000           0.186798            5.08303
    184       0.00000           0.190840            5.19303
    185       0.00000           0.192028            5.22534
    186       0.00000           0.197529            5.37504
    187       0.00000           0.200423            5.45377
    188       0.00000           0.203813            5.54602
    189       0.00000           0.204824            5.57355
    190       0.00000           0.207647            5.65037
    191       0.00000           0.212712            5.78817
    192       0.00000           0.215772            5.87147
    193       0.00000           0.217950            5.93072
    194       0.00000           0.219314            5.96785
    195       0.00000           0.224321            6.10408
    196       0.00000           0.227605            6.19344
    197       0.00000           0.229606            6.24791
    198       0.00000           0.234207            6.37310
    199       0.00000           0.235778            6.41584
    200       0.00000           0.243583            6.62824
    201       0.00000           0.249684            6.79425
    202       0.00000           0.254322            6.92045
    203       0.00000           0.255300            6.94705
    204       0.00000           0.258638            7.03789

  Highest occupied state (VBM) at     -9.03317998 eV
  | Occupation number:      2.00000000

  Lowest unoccupied state (CBM) at    -7.74911584 eV
  | Occupation number:      0.00000000

  Overall HOMO-LUMO gap:      1.28406414 eV.
  Calculating total energy contributions from superposition of free atom densities.

  Total energy components:
  | Sum of eigenvalues            :        -653.42135831 Ha      -17780.49982148 eV
  | XC energy correction          :        -154.69583645 Ha       -4209.48788625 eV
  | XC potential correction       :         198.70322705 Ha        5406.98991271 eV
  | Free-atom electrostatic energy:        -469.31542006 Ha      -12770.72234694 eV
  | Hartree energy correction     :           0.00000000 Ha           0.00000000 eV
  | Entropy correction            :           0.00000000 Ha           0.00000000 eV
  | ---------------------------
  | Total energy                  :       -1078.72938777 Ha      -29353.72014196 eV
  | Total energy, T -> 0          :       -1078.72938777 Ha      -29353.72014196 eV  <-- do not rely on this value for anything but (periodic) metals
  | Electronic free energy        :       -1078.72938777 Ha      -29353.72014196 eV

  Derived energy quantities:
  | Kinetic energy                :        1068.38683587 Ha       29072.28498556 eV
  | Electrostatic energy          :       -1992.42038718 Ha      -54216.51724126 eV
  | Energy correction for multipole
  | error in Hartree potential    :           0.00000000 Ha           0.00000000 eV
  | Sum of eigenvalues per atom                           :        -386.53260481 eV
  | Total energy (T->0) per atom                          :        -638.12435091 eV  <-- do not rely on this value for anything but (periodic) metals
  | Electronic free energy per atom                       :        -638.12435091 eV
  Initialize hartree_potential_storage
  Max. number of atoms included in rho_multipole:           46

  End scf initialization - timings             :  max(cpu_time)    wall_clock(cpu1)
  | Time for scf. initialization               :        6.445 s           6.507 s
  | Boundary condition initialization          :        0.000 s           0.004 s
  | Integration                                :        4.833 s           4.839 s
  | Solution of K.-S. eqns.                    :        0.203 s           0.222 s
  | Grid partitioning                          :        0.670 s           0.675 s
  | Preloading free-atom quantities on grid    :        0.013 s           0.017 s
  | Free-atom superposition energy             :        0.058 s           0.059 s
  | Total energy evaluation                    :        0.001 s           0.004 s

  Partial memory accounting:
  | Current value for overall tracked memory usage on task 0  :           3.625 MB
  | Peak value for overall tracked memory usage on task 0     :          24.278 MB after allocating zora_vector2
  | Largest tracked array allocation on task 0 so far         :           6.552 MB  when allocating hamiltonian_shell
  Note:  These values currently only include a subset of arrays which are explicitly tracked.
  The "true" memory usage will be greater.
------------------------------------------------------------

------------------------------------------------------------
          Begin self-consistency iteration #    1

  Date     :  20210620, Time     :  175433.498
------------------------------------------------------------
  Evaluating new KS density.
  Integration grid: deviation in total charge (<rho> - N_e) =   1.136868E-13
  Pulay mixing of updated and previous charge densities.

  Evaluating partitioned Hartree potential by multipole expansion.
  | Analytical far-field extrapolation by fixed multipoles:
  | Hartree multipole sum: apparent total charge =  -0.163440E-04
  Summing up the Hartree potential with load balancing.
  Time summed over all CPUs for potential: real work       22.716 s, elapsed       38.511 s
  | RMS charge density error from multipole expansion :   0.126042E-01

  Start compute_balanced_batch_distribution
  Done load balancing, time needed:      0.006 s
  Integrating Hamiltonian matrix: batch-based integration with load balancing
  Time summed over all CPUs for integration: real work      132.433 s, elapsed      149.694 s
  Time get_set_full_local_matrix_scalapack:     0.014484 s
  Start compute_balanced_batch_distribution
  Done load balancing, time needed:      0.007 s

  Updating Kohn-Sham eigenvalues and eigenvectors using ELSI and the ELPA eigensolver.
  Finished transformation to standard eigenproblem
  | Time :     0.012 s
  Starting ELPA eigensolver
  Finished solving standard eigenproblem
  | Time :     0.076 s
  Finished back-transformation of eigenvectors
  | Time :     0.008 s

  Obtaining occupation numbers and chemical potential using ELSI.
  | Chemical potential (Fermi level):    -5.07770250 eV
  Writing Kohn-Sham eigenvalues.

  State    Occupation    Eigenvalue [Ha]    Eigenvalue [eV]
      1       2.00000          -9.990717         -271.86125
      2       2.00000          -9.980497         -271.58314
      3       2.00000          -9.980379         -271.57993
      4       2.00000          -9.976906         -271.48543
      5       2.00000          -9.976050         -271.46212
      6       2.00000          -9.969946         -271.29604
      7       2.00000          -9.967387         -271.22641
      8       2.00000          -9.967383         -271.22630
      9       2.00000          -9.966641         -271.20610
     10       2.00000          -9.966468         -271.20139
     11       2.00000          -9.957613         -270.96044
     12       2.00000          -9.955515         -270.90333
     13       2.00000          -9.955147         -270.89333
     14       2.00000          -9.952648         -270.82534
     15       2.00000          -9.951847         -270.80354
     16       2.00000          -9.946349         -270.65392
     17       2.00000          -9.946072         -270.64639
     18       2.00000          -9.945832         -270.63987
     19       2.00000          -9.945766         -270.63805
     20       2.00000          -9.945075         -270.61925
     21       2.00000          -9.944054         -270.59146
     22       2.00000          -9.943919         -270.58781
     23       2.00000          -9.943573         -270.57839
     24       2.00000          -9.943448         -270.57498
     25       2.00000          -9.942907         -270.56025
     26       2.00000          -9.941657         -270.52626
     27       2.00000          -9.939709         -270.47325
     28       2.00000          -9.938558         -270.44192
     29       2.00000          -0.871949          -23.72693
     30       2.00000          -0.851280          -23.16451
     31       2.00000          -0.843997          -22.96633
     32       2.00000          -0.829210          -22.56396
     33       2.00000          -0.802307          -21.83188
     34       2.00000          -0.788733          -21.46251
     35       2.00000          -0.767541          -20.88585
     36       2.00000          -0.764060          -20.79114
     37       2.00000          -0.751671          -20.45401
     38       2.00000          -0.734261          -19.98025
     39       2.00000          -0.727316          -19.79127
     40       2.00000          -0.725896          -19.75264
     41       2.00000          -0.715450          -19.46838
     42       2.00000          -0.681510          -18.54482
     43       2.00000          -0.662680          -18.03243
     44       2.00000          -0.625249          -17.01389
     45       2.00000          -0.621466          -16.91096
     46       2.00000          -0.616702          -16.78132
     47       2.00000          -0.609600          -16.58805
     48       2.00000          -0.595841          -16.21367
     49       2.00000          -0.595335          -16.19988
     50       2.00000          -0.578276          -15.73568
     51       2.00000          -0.571891          -15.56194
     52       2.00000          -0.534650          -14.54857
     53       2.00000          -0.532480          -14.48953
     54       2.00000          -0.525730          -14.30584
     55       2.00000          -0.522931          -14.22968
     56       2.00000          -0.499127          -13.58195
     57       2.00000          -0.491749          -13.38118
     58       2.00000          -0.478116          -13.01020
     59       2.00000          -0.471758          -12.83718
     60       2.00000          -0.469508          -12.77596
     61       2.00000          -0.464514          -12.64007
     62       2.00000          -0.460902          -12.54179
     63       2.00000          -0.453115          -12.32989
     64       2.00000          -0.446468          -12.14900
     65       2.00000          -0.437282          -11.89905
     66       2.00000          -0.433786          -11.80391
     67       2.00000          -0.431851          -11.75125
     68       2.00000          -0.429408          -11.68478
     69       2.00000          -0.425798          -11.58655
     70       2.00000          -0.420511          -11.44270
     71       2.00000          -0.416871          -11.34364
     72       2.00000          -0.412447          -11.22326
     73       2.00000          -0.395396          -10.75926
     74       2.00000          -0.393708          -10.71333
     75       2.00000          -0.382798          -10.41645
     76       2.00000          -0.375765          -10.22510
     77       2.00000          -0.375364          -10.21419
     78       2.00000          -0.371668          -10.11360
     79       2.00000          -0.363919           -9.90275
     80       2.00000          -0.360278           -9.80365
     81       2.00000          -0.356755           -9.70779
     82       2.00000          -0.348759           -9.49022
     83       2.00000          -0.339095           -9.22726
     84       2.00000          -0.337872           -9.19398
     85       2.00000          -0.323723           -8.80894
     86       2.00000          -0.306327           -8.33558
     87       2.00000          -0.296972           -8.08101
     88       2.00000          -0.279758           -7.61260
     89       2.00000          -0.275587           -7.49912
     90       2.00000          -0.274221           -7.46195
     91       2.00000          -0.264579           -7.19956
     92       2.00000          -0.245034           -6.66772
     93       2.00000          -0.206328           -5.61446
     94       0.00000          -0.161139           -4.38481
     95       0.00000          -0.113378           -3.08517
     96       0.00000          -0.097068           -2.64136
     97       0.00000          -0.083994           -2.28560
     98       0.00000          -0.082825           -2.25379
     99       0.00000          -0.076328           -2.07699
    100       0.00000          -0.053164           -1.44666
    101       0.00000          -0.051991           -1.41473
    102       0.00000          -0.046906           -1.27637
    103       0.00000          -0.028384           -0.77237
    104       0.00000          -0.022288           -0.60648
    105       0.00000          -0.020853           -0.56745
    106       0.00000          -0.015868           -0.43180
    107       0.00000          -0.006168           -0.16783
    108       0.00000           0.000270            0.00735
    109       0.00000           0.001314            0.03575
    110       0.00000           0.001536            0.04181
    111       0.00000           0.010112            0.27517
    112       0.00000           0.010392            0.28277
    113       0.00000           0.017020            0.46313
    114       0.00000           0.026283            0.71520
    115       0.00000           0.031029            0.84435
    116       0.00000           0.033057            0.89954
    117       0.00000           0.038086            1.03636
    118       0.00000           0.042531            1.15733
    119       0.00000           0.052008            1.41521
    120       0.00000           0.053135            1.44588
    121       0.00000           0.056431            1.53557
    122       0.00000           0.070188            1.90991
    123       0.00000           0.070726            1.92457
    124       0.00000           0.078978            2.14911
    125       0.00000           0.079854            2.17294
    126       0.00000           0.081005            2.20424
    127       0.00000           0.083977            2.28512
    128       0.00000           0.087634            2.38463
    129       0.00000           0.103559            2.81799
    130       0.00000           0.104276            2.83749
    131       0.00000           0.105796            2.87886
    132       0.00000           0.106471            2.89723
    133       0.00000           0.111602            3.03686
    134       0.00000           0.113445            3.08699
    135       0.00000           0.116098            3.15918
    136       0.00000           0.124007            3.37441
    137       0.00000           0.125496            3.41492
    138       0.00000           0.129603            3.52668
    139       0.00000           0.131656            3.58255
    140       0.00000           0.133955            3.64510
    141       0.00000           0.136965            3.72701
    142       0.00000           0.141106            3.83970
    143       0.00000           0.142503            3.87771
    144       0.00000           0.150522            4.09591
    145       0.00000           0.151041            4.11002
    146       0.00000           0.153313            4.17186
    147       0.00000           0.155871            4.24146
    148       0.00000           0.157004            4.27229
    149       0.00000           0.158318            4.30806
    150       0.00000           0.162233            4.41460
    151       0.00000           0.165889            4.51408
    152       0.00000           0.166450            4.52933
    153       0.00000           0.167984            4.57107
    154       0.00000           0.178059            4.84524
    155       0.00000           0.179190            4.87601
    156       0.00000           0.182399            4.96334
    157       0.00000           0.184986            5.03373
    158       0.00000           0.187576            5.10419
    159       0.00000           0.192271            5.23197
    160       0.00000           0.193367            5.26178
    161       0.00000           0.195694            5.32511
    162       0.00000           0.197129            5.36415
    163       0.00000           0.201026            5.47021
    164       0.00000           0.205007            5.57853
    165       0.00000           0.207411            5.64394
    166       0.00000           0.208117            5.66315
    167       0.00000           0.209734            5.70715
    168       0.00000           0.210984            5.74117
    169       0.00000           0.212175            5.77358
    170       0.00000           0.214658            5.84113
    171       0.00000           0.215696            5.86938
    172       0.00000           0.217417            5.91621
    173       0.00000           0.225559            6.13778
    174       0.00000           0.228489            6.21749
    175       0.00000           0.230168            6.26319
    176       0.00000           0.231507            6.29963
    177       0.00000           0.231952            6.31174
    178       0.00000           0.239728            6.52334
    179       0.00000           0.240518            6.54482
    180       0.00000           0.247528            6.73557
    181       0.00000           0.251120            6.83333
    182       0.00000           0.253036            6.88546
    183       0.00000           0.255120            6.94218
    184       0.00000           0.264797            7.20550
    185       0.00000           0.268713            7.31206
    186       0.00000           0.271819            7.39656
    187       0.00000           0.272781            7.42275
    188       0.00000           0.272995            7.42856
    189       0.00000           0.279438            7.60390
    190       0.00000           0.280294            7.62719
    191       0.00000           0.285149            7.75930
    192       0.00000           0.288072            7.83883
    193       0.00000           0.296284            8.06230
    194       0.00000           0.304524            8.28652
    195       0.00000           0.305143            8.30335
    196       0.00000           0.310044            8.43674
    197       0.00000           0.317111            8.62903
    198       0.00000           0.319558            8.69561
    199       0.00000           0.320985            8.73446
    200       0.00000           0.324932            8.84185
    201       0.00000           0.326298            8.87903
    202       0.00000           0.329807            8.97452
    203       0.00000           0.334635            9.10587
    204       0.00000           0.337898            9.19467

  Highest occupied state (VBM) at     -5.61445731 eV
  | Occupation number:      2.00000000

  Lowest unoccupied state (CBM) at    -4.38480974 eV
  | Occupation number:      0.00000000

  Overall HOMO-LUMO gap:      1.22964758 eV.

  Total energy components:
  | Sum of eigenvalues            :        -623.49438444 Ha      -16966.14542858 eV
  | XC energy correction          :        -156.73194456 Ha       -4264.89320697 eV
  | XC potential correction       :         201.34673087 Ha        5478.92331160 eV
  | Free-atom electrostatic energy:        -469.31542006 Ha      -12770.72234694 eV
  | Hartree energy correction     :         -29.54738193 Ha        -804.02517072 eV
  | Entropy correction            :           0.00000000 Ha           0.00000000 eV
  | ---------------------------
  | Total energy                  :       -1077.74240012 Ha      -29326.86284162 eV
  | Total energy, T -> 0          :       -1077.74240012 Ha      -29326.86284162 eV  <-- do not rely on this value for anything but (periodic) metals
  | Electronic free energy        :       -1077.74240012 Ha      -29326.86284162 eV

  Derived energy quantities:
  | Kinetic energy                :        1077.55020596 Ha       29321.63297247 eV
  | Electrostatic energy          :       -1998.56066152 Ha      -54383.60260711 eV
  | Energy correction for multipole
  | error in Hartree potential    :          -0.06814631 Ha          -1.85435547 eV
  | Sum of eigenvalues per atom                           :        -368.82924845 eV
  | Total energy (T->0) per atom                          :        -637.54049656 eV  <-- do not rely on this value for anything but (periodic) metals
  | Electronic free energy per atom                       :        -637.54049656 eV

  Self-consistency convergence accuracy:
  | Change of charge density      :  0.1062E+01
  | Change of sum of eigenvalues  :  0.8144E+03 eV
  | Change of total energy        :  0.2686E+02 eV

  End self-consistency iteration #     1       :  max(cpu_time)    wall_clock(cpu1)
  | Time for this iteration                    :        4.602 s           4.608 s
  | Charge density update                      :        1.066 s           1.068 s
  | Density mixing                             :        0.003 s           0.004 s
  | Hartree multipole update                   :        0.009 s           0.011 s
  | Hartree multipole summation                :        0.697 s           0.699 s
  | Integration                                :        2.678 s           2.678 s
  | Solution of K.-S. eqns.                    :        0.135 s           0.135 s
  | Total energy evaluation                    :        0.000 s           0.000 s

  Partial memory accounting:
[...]
     34       2.00000          -0.731788          -19.91297
     35       2.00000          -0.714080          -19.43112
     36       2.00000          -0.708430          -19.27737
     37       2.00000          -0.697461          -18.97888
     38       2.00000          -0.682116          -18.56132
     39       2.00000          -0.672206          -18.29166
     40       2.00000          -0.671965          -18.28509
     41       2.00000          -0.658557          -17.92025
     42       2.00000          -0.622773          -16.94651
     43       2.00000          -0.608165          -16.54900
     44       2.00000          -0.565381          -15.38480
     45       2.00000          -0.564079          -15.34938
     46       2.00000          -0.560465          -15.25102
     47       2.00000          -0.552713          -15.04007
     48       2.00000          -0.539643          -14.68443
     49       2.00000          -0.538549          -14.65465
     50       2.00000          -0.519740          -14.14285
     51       2.00000          -0.513386          -13.96995
     52       2.00000          -0.477058          -12.98142
     53       2.00000          -0.474101          -12.90094
     54       2.00000          -0.465623          -12.67025
     55       2.00000          -0.464817          -12.64832
     56       2.00000          -0.440206          -11.97861
     57       2.00000          -0.432857          -11.77863
     58       2.00000          -0.415914          -11.31760
     59       2.00000          -0.415391          -11.30336
     60       2.00000          -0.407424          -11.08658
     61       2.00000          -0.407231          -11.08131
     62       2.00000          -0.400208          -10.89022
     63       2.00000          -0.393616          -10.71083
     64       2.00000          -0.388162          -10.56244
     65       2.00000          -0.378524          -10.30016
     66       2.00000          -0.376536          -10.24607
     67       2.00000          -0.374644          -10.19458
     68       2.00000          -0.370768          -10.08910
     69       2.00000          -0.369555          -10.05610
     70       2.00000          -0.365449           -9.94438
     71       2.00000          -0.359283           -9.77660
     72       2.00000          -0.357779           -9.73567
     73       2.00000          -0.355436           -9.67191
     74       2.00000          -0.336453           -9.15536
     75       2.00000          -0.332843           -9.05711
     76       2.00000          -0.331415           -9.01825
     77       2.00000          -0.322346           -8.77148
     78       2.00000          -0.314489           -8.55769
     79       2.00000          -0.305635           -8.31675
     80       2.00000          -0.300829           -8.18598
     81       2.00000          -0.298331           -8.11801
     82       2.00000          -0.294446           -8.01230
     83       2.00000          -0.289893           -7.88839
     84       2.00000          -0.280366           -7.62915
     85       2.00000          -0.277717           -7.55706
     86       2.00000          -0.266049           -7.23956
     87       2.00000          -0.257644           -7.01085
     88       2.00000          -0.238193           -6.48157
     89       2.00000          -0.237139           -6.45289
     90       2.00000          -0.234596           -6.38368
     91       2.00000          -0.224352           -6.10492
     92       2.00000          -0.203509           -5.53776
     93       2.00000          -0.162142           -4.41211
     94       0.00000          -0.118472           -3.22377
     95       0.00000          -0.071538           -1.94664
     96       0.00000          -0.055117           -1.49982
     97       0.00000          -0.043688           -1.18882
     98       0.00000          -0.043040           -1.17117
     99       0.00000          -0.034197           -0.93054
    100       0.00000          -0.012466           -0.33922
    101       0.00000          -0.011035           -0.30029
    102       0.00000          -0.008744           -0.23793
    103       0.00000          -0.006791           -0.18479
    104       0.00000          -0.000999           -0.02719
    105       0.00000           0.000007            0.00019
    106       0.00000           0.006320            0.17199
    107       0.00000           0.014551            0.39594
    108       0.00000           0.019419            0.52842
    109       0.00000           0.020978            0.57084
    110       0.00000           0.030184            0.82135
    111       0.00000           0.030426            0.82795
    112       0.00000           0.038221            1.04005
    113       0.00000           0.046056            1.25326
    114       0.00000           0.047015            1.27935
    115       0.00000           0.051648            1.40542
    116       0.00000           0.053421            1.45365
    117       0.00000           0.057378            1.56132
    118       0.00000           0.066890            1.82018
    119       0.00000           0.076833            2.09073
    120       0.00000           0.088143            2.39849
    121       0.00000           0.097175            2.64426
    122       0.00000           0.097703            2.65863
    123       0.00000           0.099046            2.69517
    124       0.00000           0.104749            2.85035
    125       0.00000           0.107228            2.91782
    126       0.00000           0.111274            3.02791
    127       0.00000           0.112533            3.06217
    128       0.00000           0.114195            3.10740
    129       0.00000           0.119581            3.25397
    130       0.00000           0.125311            3.40990
    131       0.00000           0.131977            3.59126
    132       0.00000           0.137655            3.74579
    133       0.00000           0.140727            3.82937
    134       0.00000           0.143391            3.90186
    135       0.00000           0.148361            4.03710
    136       0.00000           0.151936            4.13438
    137       0.00000           0.153078            4.16547
    138       0.00000           0.156629            4.26210
    139       0.00000           0.157644            4.28972
    140       0.00000           0.162127            4.41169
    141       0.00000           0.165662            4.50791
    142       0.00000           0.172420            4.69178
    143       0.00000           0.176727            4.80899
    144       0.00000           0.178149            4.84768
    145       0.00000           0.181902            4.94979
    146       0.00000           0.183771            5.00067
    147       0.00000           0.184982            5.03363
    148       0.00000           0.187860            5.11194
    149       0.00000           0.188547            5.13063
    150       0.00000           0.190968            5.19650
    151       0.00000           0.191701            5.21646
    152       0.00000           0.198719            5.40743
    153       0.00000           0.202412            5.50792
    154       0.00000           0.206363            5.61542
    155       0.00000           0.211903            5.76617
    156       0.00000           0.213141            5.79986
    157       0.00000           0.220061            5.98815
    158       0.00000           0.220490            5.99985
    159       0.00000           0.223953            6.09407
    160       0.00000           0.226658            6.16769
    161       0.00000           0.229420            6.24284
    162       0.00000           0.231052            6.28726
    163       0.00000           0.233014            6.34062
    164       0.00000           0.234530            6.38188
    165       0.00000           0.237184            6.45411
    166       0.00000           0.238537            6.49091
    167       0.00000           0.239147            6.50752
    168       0.00000           0.242706            6.60437
    169       0.00000           0.243450            6.62462
    170       0.00000           0.245392            6.67747
    171       0.00000           0.246587            6.70997
    172       0.00000           0.247902            6.74576
    173       0.00000           0.249344            6.78498
    174       0.00000           0.258946            7.04628
    175       0.00000           0.263071            7.15852
    176       0.00000           0.265351            7.22056
    177       0.00000           0.267882            7.28944
    178       0.00000           0.270319            7.35575
    179       0.00000           0.271896            7.39867
    180       0.00000           0.280824            7.64160
    181       0.00000           0.281487            7.65966
    182       0.00000           0.287642            7.82714
    183       0.00000           0.289634            7.88134
    184       0.00000           0.294993            8.02717
    185       0.00000           0.296406            8.06563
    186       0.00000           0.297279            8.08938
    187       0.00000           0.301773            8.21166
    188       0.00000           0.305295            8.30749
    189       0.00000           0.309997            8.43544
    190       0.00000           0.317326            8.63488
    191       0.00000           0.319209            8.68611
    192       0.00000           0.320477            8.72062
    193       0.00000           0.322581            8.77789
    194       0.00000           0.336382            9.15342
    195       0.00000           0.337900            9.19473
    196       0.00000           0.341684            9.29769
    197       0.00000           0.345271            9.39531
    198       0.00000           0.347512            9.45629
    199       0.00000           0.350471            9.53681
    200       0.00000           0.359736            9.78891
    201       0.00000           0.360607            9.81261
    202       0.00000           0.361944            9.84901
    203       0.00000           0.373503           10.16354
    204       0.00000           0.375049           10.20559

  Highest occupied state (VBM) at     -4.41211471 eV
  | Occupation number:      2.00000000

  Lowest unoccupied state (CBM) at    -3.22377434 eV
  | Occupation number:      0.00000000

  Overall HOMO-LUMO gap:      1.18834037 eV.

  Total energy components:
  | Sum of eigenvalues            :        -613.29318303 Ha      -16688.55661475 eV
  | XC energy correction          :        -157.65830347 Ha       -4290.10071544 eV
  | XC potential correction       :         202.53151645 Ha        5511.16296748 eV
  | Free-atom electrostatic energy:        -469.31542006 Ha      -12770.72234694 eV
  | Hartree energy correction     :         -39.63625655 Ha       -1078.55741714 eV
  | Entropy correction            :           0.00000000 Ha           0.00000000 eV
  | ---------------------------
  | Total energy                  :       -1077.37164666 Ha      -29316.77412679 eV
  | Total energy, T -> 0          :       -1077.37164666 Ha      -29316.77412679 eV  <-- do not rely on this value for anything but (periodic) metals
  | Electronic free energy        :       -1077.37164666 Ha      -29316.77412679 eV

  Derived energy quantities:
  | Kinetic energy                :        1074.66239882 Ha       29243.05174205 eV
  | Electrostatic energy          :       -1994.37574201 Ha      -54269.72515341 eV
  | Energy correction for multipole
  | error in Hartree potential    :          -0.12707361 Ha          -3.45784893 eV
  | Sum of eigenvalues per atom                           :        -362.79470902 eV
  | Total energy (T->0) per atom                          :        -637.32117667 eV  <-- do not rely on this value for anything but (periodic) metals
  | Electronic free energy per atom                       :        -637.32117667 eV
  End evaluation of scaled ZORA corrections.
  | Time for scaled ZORA corrections           :        4.609 s           4.611 s
------------------------------------------------------------

  Energy and forces in a compact form:
  | Total energy uncorrected      :         -0.293167741267900E+05 eV
  | Total energy corrected        :         -0.293167741267900E+05 eV  <-- do not rely on this value for anything but (periodic) metals
  | Electronic free energy        :         -0.293167741267900E+05 eV

  ------------------------------------ 
  Start decomposition of the XC Energy 
  ------------------------------------ 
  X and C from original XC functional choice 
  Hartree-Fock Energy :          0.000000000 Ha              0.000000000 eV
  X Energy            :       -151.438514275 Ha          -4120.851640037 eV
  C Energy            :         -6.219789199 Ha           -169.249075401 eV
  Total XC Energy     :       -157.658303474 Ha          -4290.100715439 eV
  ------------------------------------ 
  LDA X and C from self-consistent density 
  X Energy LDA        :       -137.144737534 Ha          -3731.898185183 eV
  C Energy LDA        :        -11.993288712 Ha           -326.353990565 eV
  ------------------------------------ 
  End decomposition of the XC Energy 
  ------------------------------------ 

------------------------------------------------------------

------------------------------------------------------------------------------
  Final output of selected total energy values:

  The following output summarizes some interesting total energy values
  at the end of a run (AFTER all relaxation, molecular dynamics, etc.).

  | Total energy of the DFT / Hartree-Fock s.c.f. calculation      :         -29316.774126790 eV
  | Final zero-broadening corrected energy (caution - metals only) :         -29316.774126790 eV
  | For reference only, the value of 1 Hartree used in FHI-aims is :             27.211384500 eV

  Before relying on these values, please be sure to understand exactly which
  total energy value is referred to by a given number. Different objects may
  all carry the same name 'total energy'. Definitions:

  Total energy of the DFT / Hartree-Fock s.c.f. calculation:
  | Note that this energy does not include ANY quantities calculated after the
  | s.c.f. cycle, in particular not ANY RPA, MP2, etc. many-body perturbation terms.
  | Scalar relativistic effects have been included in the 'scaled ZORA' approximation.

  Final zero-broadening corrected energy:
  | For metallic systems only, a broadening of the occupation numbers at the Fermi
  | level can be extrapolated back to zero broadening by an electron-gas inspired
  | formula. For all systems that are not real metals, this value can be
  | meaningless and should be avoided.

------------------------------------------------------------------------------
  Methods described in the following list of references were used in this FHI-aims run.
  If you publish the results, please make sure to cite these reference if they apply.
  FHI-aims is an academic code, and for our developers (often, Ph.D. students
  and postdocs), scientific credit in the community is essential.
  Thank you for helping us!

  For any use of FHI-aims, please cite:

    Volker Blum, Ralf Gehrke, Felix Hanke, Paula Havu, Ville Havu,
    Xinguo Ren, Karsten Reuter, and Matthias Scheffler
    'Ab initio molecular simulations with numeric atom-centered orbitals'
    Computer Physics Communications 180, 2175-2196 (2009)
    http://dx.doi.org/10.1016/j.cpc.2009.06.022


  The scalable eigensolver library ELPA was used in your run.
  ELPA is essential especially for large systems on hundreds or thousands of CPUs.
  For ELPA, please cite:

    Andreas Marek, Volker Blum, Rainer Johanni, Ville Havu, Bruno Lang,
    Thomas Auckenthaler, Alexander Heinecke, Hans-Joachim Bungartz, and Hermann Lederer,
    'The ELPA Library - Scalable Parallel Eigenvalue Solutions
    for Electronic Structure Theory and Computational Science'
    The Journal of Physics: Condensed Matter 26, 213201 (2014).
    http://dx.doi.org/10.1088/0953-8984/26/21/213201


  The ELSI infrastructure was used in your run to solve the Kohn-Sham electronic structure.
  Please check out http://elsi-interchange.org to learn more.
  If scalability is important for your project, please acknowledge ELSI by citing:

    V. W-z. Yu, F. Corsetti, A. Garcia, W. P. Huhn, M. Jacquelin, W. Jia,
    B. Lange, L. Lin, J. Lu, W. Mi, A. Seifitokaldani, A. Vazquez-Mayagoitia,
    C. Yang, H. Yang, and V. Blum
    'ELSI: A unified software interface for Kohn-Sham electronic structure solvers'
    Computer Physics Communications 222, 267-285 (2018).
    http://dx.doi.org/10.1016/j.cpc.2017.09.007


  For the real-space grid partitioning and parallelization used in this calculation, please cite:

    Ville Havu, Volker Blum, Paula Havu, and Matthias Scheffler,
    'Efficient O(N) integration for all-electron electronic structure calculation'
    'using numerically tabulated basis functions'
    Journal of Computational Physics 228, 8367-8379 (2009).
    http://dx.doi.org/10.1016/j.jcp.2009.08.008

  Of course, there are many other important community references, e.g., those cited in the
  above references. Our list is limited to references that describe implementations in the
  FHI-aims code. The reason is purely practical (length of this list) - please credit others as well.

------------------------------------------------------------
          Leaving FHI-aims.
          Date     :  20210620, Time     :  175553.641

          Computational steps:
          | Number of self-consistency cycles          :           18
          | Number of SCF (re)initializations          :            1

          Detailed time accounting                     :  max(cpu_time)    wall_clock(cpu1)
          | Total time                                 :       86.829 s          87.021 s
          | Preparation time                           :        0.191 s           0.180 s
          | Boundary condition initalization           :        0.000 s           0.004 s
          | Grid partitioning                          :        0.670 s           0.675 s
          | Preloading free-atom quantities on grid    :        0.013 s           0.017 s
          | Free-atom superposition energy             :        0.058 s           0.059 s
          | Total time for integrations                :       49.843 s          49.854 s
          | Total time for solution of K.-S. equations :        2.558 s           2.581 s
          | Total time for density update              :       19.003 s          18.957 s
          | Total time for mixing                      :        0.132 s           0.136 s
          | Total time for Hartree multipole update    :        0.156 s           0.164 s
          | Total time for Hartree multipole sum       :        8.676 s           8.678 s
          | Total time for total energy evaluation     :        0.006 s           0.034 s
          | Total time for scaled ZORA corrections     :        4.609 s           4.611 s

          Partial memory accounting:
          | Residual value for overall tracked memory usage across tasks :     0.000000 MB (should be 0.000000 MB)
          | Peak values for overall tracked memory usage (after allocating zora_vector2):
          |   Minimum:       23.871 MB (on task 40)
          |   Maximum:       30.134 MB (on task 51)
          |   Average:       27.150 MB
          | Largest tracked array allocation (hamiltonian_shell):
          |   Minimum:        6.552 MB (on task  1)
          |   Maximum:        6.552 MB (on task  1)
          |   Average:        6.552 MB
          Note:  These values currently only include a subset of arrays which are explicitly tracked.
          The "true" memory usage will be greater.

          Have a nice day.
------------------------------------------------------------
