  MPI-parallelism will be employed.
------------------------------------------------------------
          Invoking FHI-aims ...
          Version 180607
          Git rev. (modified): 6724847 Fix JSON memory corruption in scf_solver
          Compiled on 2018/06/27 at 16:00:31 on host coe.psc.edu.

          When using FHI-aims, please cite the following reference:

          Volker Blum, Ralf Gehrke, Felix Hanke, Paula Havu,
          Ville Havu, Xinguo Ren, Karsten Reuter, and Matthias Scheffler,
          'Ab Initio Molecular Simulations with Numeric Atom-Centered Orbitals',
          Computer Physics Communications 180, 2175-2196 (2009)

          For any questions about FHI-aims, please visit the aimsclub website
          with its forums and wiki. Contributions to both the forums and the
          wiki are warmly encouraged - they are for you, and everyone is welcome there.

------------------------------------------------------------



  Date     :  20210620, Time     :  160619.886
  Time zero on CPU 1             :   0.262484000000000E+00  s.
  Internal wall clock time zero  :           393437179.886  s.

  FHI-aims created a unique identifier for this run for later identification
  aims_uuid : 64E42230-8D36-4E21-AD37-7143796932A3

  Using       56 parallel tasks.
  Task        0 on host d030 reporting.
  Task        1 on host d030 reporting.
  Task        2 on host d030 reporting.
  Task        3 on host d030 reporting.
  Task        4 on host d030 reporting.
  Task        5 on host d030 reporting.
  Task        6 on host d030 reporting.
  Task        7 on host d030 reporting.
  Task        8 on host d030 reporting.
  Task        9 on host d030 reporting.
  Task       10 on host d030 reporting.
  Task       11 on host d030 reporting.
  Task       12 on host d030 reporting.
  Task       13 on host d030 reporting.
  Task       14 on host d030 reporting.
  Task       15 on host d030 reporting.
  Task       16 on host d030 reporting.
  Task       17 on host d030 reporting.
  Task       18 on host d030 reporting.
  Task       19 on host d030 reporting.
  Task       20 on host d030 reporting.
  Task       21 on host d030 reporting.
  Task       22 on host d030 reporting.
  Task       23 on host d030 reporting.
  Task       24 on host d030 reporting.
  Task       25 on host d030 reporting.
  Task       26 on host d030 reporting.
  Task       27 on host d030 reporting.
  Task       28 on host d030 reporting.
  Task       29 on host d030 reporting.
  Task       30 on host d030 reporting.
  Task       31 on host d030 reporting.
  Task       32 on host d030 reporting.
  Task       33 on host d030 reporting.
  Task       34 on host d030 reporting.
  Task       35 on host d030 reporting.
  Task       36 on host d030 reporting.
  Task       37 on host d030 reporting.
  Task       38 on host d030 reporting.
  Task       39 on host d030 reporting.
  Task       40 on host d030 reporting.
  Task       41 on host d030 reporting.
  Task       42 on host d030 reporting.
  Task       43 on host d030 reporting.
  Task       44 on host d030 reporting.
  Task       45 on host d030 reporting.
  Task       46 on host d030 reporting.
  Task       47 on host d030 reporting.
  Task       48 on host d030 reporting.
  Task       49 on host d030 reporting.
  Task       50 on host d030 reporting.
  Task       51 on host d030 reporting.
  Task       52 on host d030 reporting.
  Task       53 on host d030 reporting.
  Task       54 on host d030 reporting.
  Task       55 on host d030 reporting.

  Performing system and environment tests:
  *** Environment variable OMP_NUM_THREADS is not set
  *** For performance reasons you might want to set it to 1
  | Stacksize not measured: no C compiler
  | Checking for scalapack...
  | Testing pdtran()...
  | All pdtran() tests passed.

  Obtaining array dimensions for all initial allocations:
  
  -----------------------------------------------------------------------
  Parsing control.in (first pass over file, find array dimensions only).
  The contents of control.in will be repeated verbatim below
  unless switched off by setting 'verbatim_writeout .false.' .
  in the first line of control.in .
  -----------------------------------------------------------------------
  
  #===============================================================================
  # FHI-aims file: ./Runs/es/control.in
  # Created using the Atomic Simulation Environment (ASE)
  # Mon Jan 13 16:04:38 2020
  #===============================================================================
  xc                                 pbe
  relativistic                       zora scalar 1e-12
  occupation_type                    gaussian 0.0001
  load_balancing                     .true.
  KS_method                          scalapack_fast
  mixer                              pulay
  n_max_pulay                        5
  charge_mix_param                   0.4
  sc_accuracy_etot                   1e-6
  sc_accuracy_eev                    1e-4
  sc_accuracy_rho                    1e-6
  sc_iter_limit                      100
  prodbas_threshold                  1e-4
  basis_threshold                    1e-5
  override_illconditioning           .true.
  use_logsbt                         .true.
  spin                               none
  charge                             0
  #===============================================================================
  
  ################################################################################
  #
  #  FHI-aims code project
  # Volker Blum, Fritz Haber Institute Berlin, 2009
  #
  #  Suggested "tight" defaults for H atom (to be pasted into control.in file)
  #
  ################################################################################
    species        H
  #     global species definitions
      nucleus             1
      mass                1.00794
  #
      l_hartree           6
  #
      cut_pot             4.0  2.0  1.0
      basis_dep_cutoff    1e-4
  #
      radial_base         24 7.0
      radial_multiplier   2
      angular_grids       specified
        division   0.1930   50
        division   0.3175  110
        division   0.4293  194
        division   0.5066  302
        division   0.5626  434
  #      division   0.5922  590
  #      division   0.6227  974
  #      division   0.6868 1202
  #      outer_grid  770
        outer_grid  434
  ################################################################################
  #
  #  Definition of "minimal" basis
  #
  ################################################################################
  #     valence basis states
      valence      1  s   1.
  #     ion occupancy
      ion_occ      1  s   0.5
  ################################################################################
  #
  #  Suggested additional basis functions. For production calculations,
  #  uncomment them one after another (the most important basis functions are
  #  listed first).
  #
  #  Basis constructed for dimers: 0.5 A, 0.7 A, 1.0 A, 1.5 A, 2.5 A
  #
  ################################################################################
  #  "First tier" - improvements: -1014.90 meV to -62.69 meV
       hydro 2 s 2.1
       hydro 2 p 3.5
  #  "Second tier" - improvements: -12.89 meV to -1.83 meV
       hydro 1 s 0.85
       hydro 2 p 3.7
       hydro 2 s 1.2
       hydro 3 d 7
  #  "Third tier" - improvements: -0.25 meV to -0.12 meV
  #     hydro 4 f 11.2
  #     hydro 3 p 4.8
  #     hydro 4 d 9
  #     hydro 3 s 3.2
  ################################################################################
  #
  # For methods that use the localized form of the "resolution of identity" for
  # the two-electron Coulomb operator (RI_method LVL), particularly Hartree-Fock and
  # hybrid density functional calculations, the highest accuracy can be obtained by
  # uncommenting the line beginning with "for_aux"  below, thus adding an extra g radial
  # function to the construction of the product basis set for the expansion.
  # See Ref. New J. Phys. 17, 093020 (2015) for more information, particularly Figs. 1 and 6.
  #
  ################################################################################
  #
  # for_aux hydro 5 g 6.0
  ################################################################################
  #
  #  FHI-aims code project
  # Volker Blum, Fritz Haber Institute Berlin, 2009
  #
  #  Suggested "tight" defaults for C atom (to be pasted into control.in file)
  #
  ################################################################################
    species        C
  #     global species definitions
      nucleus             6
      mass                12.0107
  #
      l_hartree           6
  #
      cut_pot             4.0  2.0  1.0
      basis_dep_cutoff    1e-4
  #
      radial_base         34 7.0
      radial_multiplier   2
      angular_grids specified
        division   0.2187   50
        division   0.4416  110
        division   0.6335  194
        division   0.7727  302
        division   0.8772  434
  #      division   0.9334  590
  #      division   0.9924  770
  #      division   1.0230  974
  #      division   1.5020 1202
  #     outer_grid  974
        outer_grid  434
  ################################################################################
  #
  #  Definition of "minimal" basis
  #
  ################################################################################
  #     valence basis states
      valence      2  s   2.
      valence      2  p   2.
  #     ion occupancy
      ion_occ      2  s   1.
      ion_occ      2  p   1.
  ################################################################################
  #
  #  Suggested additional basis functions. For production calculations,
  #  uncomment them one after another (the most important basis functions are
  #  listed first).
  #
  #  Constructed for dimers: 1.0 A, 1.25 A, 1.5 A, 2.0 A, 3.0 A
  #
  ################################################################################
  #  "First tier" - improvements: -1214.57 meV to -155.61 meV
       hydro 2 p 1.7
       hydro 3 d 6
       hydro 2 s 4.9
  #  "Second tier" - improvements: -67.75 meV to -5.23 meV
       hydro 4 f 9.8
       hydro 3 p 5.2
       hydro 3 s 4.3
       hydro 5 g 14.4
       hydro 3 d 6.2
  #  "Third tier" - improvements: -2.43 meV to -0.60 meV
  #     hydro 2 p 5.6
  #     hydro 2 s 1.4
  #     hydro 3 d 4.9
  #     hydro 4 f 11.2
  #  "Fourth tier" - improvements: -0.39 meV to -0.18 meV
  #     hydro 2 p 2.1
  #     hydro 5 g 16.4
  #     hydro 4 d 13.2
  #     hydro 3 s 13.6
  #     hydro 4 f 17.6
  #  Further basis functions - improvements: -0.08 meV and below
  #     hydro 3 s 2
  #     hydro 3 p 6
  #     hydro 4 d 20
  ################################################################################
  #
  # For methods that use the localized form of the "resolution of identity" for
  # the two-electron Coulomb operator (RI_method LVL), particularly Hartree-Fock and
  # hybrid density functional calculations, the highest accuracy can be obtained by
  # uncommenting the line beginning with "for_aux"  below, thus adding an extra g radial
  # function to the construction of the product basis set for the expansion.
  # See Ref. New J. Phys. 17, 093020 (2015) for more information, particularly Figs. 1 and 6.
  #
  ################################################################################
  #
  # for_aux hydro 5 g 6.0
  
  -----------------------------------------------------------------------
  Completed first pass over input file control.in .
  -----------------------------------------------------------------------
  
  
  -----------------------------------------------------------------------
  Parsing geometry.in (first pass over file, find array dimensions only).
  The contents of geometry.in will be repeated verbatim below
  unless switched off by setting 'verbatim_writeout .false.' .
  in the first line of geometry.in .
  -----------------------------------------------------------------------
  
  #=======================================================
  # FHI-aims file: geometry.in
  # Created using the Atomic Simulation Environment (ASE)
  # Sun Jun 20 15:47:01 2021
  #=======================================================
  atom 19.9004580000000004 21.0255620000000008 54.8171889999999991 C
  atom 19.1892789999999991 22.1324289999999984 54.3978109999999973 C
  atom 19.9059470000000012 19.8660980000000009 54.0565560000000005 C
  atom 20.4776339999999983 21.0560219999999987 55.7404099999999971 H
  atom 18.4875100000000003 22.0792399999999986 53.2114589999999978 C
  atom 19.1972769999999997 23.0455269999999999 54.9938170000000000 H
  atom 19.2002570000000006 19.7807190000000013 52.8548070000000010 C
  atom 20.4911990000000017 19.0219020000000008 54.4143410000000003 H
  atom 17.9280539999999995 22.9449609999999993 52.8552589999999967 H
  atom 18.4945670000000000 20.9198500000000003 52.4496940000000009 C
  atom 19.1869270000000007 18.5277889999999985 52.0466199999999972 C
  atom 17.9287600000000005 20.9181740000000005 51.5201330000000013 H
  atom 18.5471010000000014 18.4498530000000009 50.8079589999999968 C
  atom 19.8032299999999992 17.3545380000000016 52.4965690000000009 C
  atom 18.5102490000000017 17.2754000000000012 50.0765379999999993 C
  atom 18.0533539999999988 19.3230590000000007 50.3865430000000032 H
  atom 19.7695129999999999 16.1850859999999983 51.7655999999999992 C
  atom 20.3313209999999991 17.3360100000000017 53.4474159999999969 H
  atom 17.9882729999999995 17.2833450000000006 49.1213880000000032 H
  atom 19.1202790000000000 16.1099609999999984 50.5301100000000005 C
  atom 20.2728269999999995 15.3082899999999995 52.1711650000000020 H
  atom 19.0904829999999990 14.8610530000000001 49.7527199999999965 C
  atom 18.4443839999999994 14.7033679999999993 48.4413699999999992 C
  atom 19.6495460000000008 13.6623350000000006 50.0998620000000017 C
  atom 17.9203699999999984 15.4944469999999992 47.9128449999999972 H
  atom 18.6113980000000012 13.4133069999999996 48.0163310000000010 C
  atom 19.3868720000000003 12.7190930000000009 49.0480200000000011 C
  atom 20.2054730000000013 13.4306560000000008 51.0027029999999968 H
  atom 18.2075859999999992 12.7105829999999997 46.8093720000000033 C
  atom 19.7287399999999984 11.4133899999999997 48.8929040000000015 C
  atom 17.4893509999999992 13.3001290000000001 45.7783629999999988 C
  atom 18.6113980000000012 11.3484839999999991 46.6705609999999993 C
  atom 19.3649179999999994 10.6925580000000000 47.7013439999999989 C
  atom 20.3091310000000007 10.8901439999999994 49.6546689999999984 H
  atom 17.1788470000000011 12.5898430000000001 44.6101269999999985 C
  atom 17.1817479999999989 14.3422029999999996 45.8589780000000005 H
  atom 18.2993260000000006 10.6318090000000005 45.4769629999999978 C
  atom 19.7608880000000013 9.3758649999999992 47.5142990000000012 C
  atom 16.6335049999999995 13.0908379999999998 43.8132629999999992 H
  atom 17.5748169999999995 11.2883270000000007 44.4525199999999998 C
  atom 18.7407739999999983 9.2886319999999998 45.3410950000000028 C
  atom 19.4582259999999998 8.6879629999999999 46.3422139999999985 C
  atom 20.3385350000000003 8.8810549999999999 48.2935009999999991 H
  atom 17.3616209999999995 10.7569890000000008 43.5245439999999988 H
  atom 18.5226369999999996 8.7611749999999997 44.4122130000000013 H
  atom 19.8014259999999993 7.6599069999999996 46.2364639999999980 H
  
  -----------------------------------------------------------------------
  Completed first pass over input file geometry.in .
  -----------------------------------------------------------------------
  

  Basic array size parameters:
  | Number of species                 :        2
  | Number of atoms                   :       46
  | Max. basis fn. angular momentum   :        4
  | Max. atomic/ionic basis occupied n:        2
  | Max. number of basis fn. types    :        2
  | Max. radial fns per species/type  :        8
  | Max. logarithmic grid size        :     1277
  | Max. radial integration grid size :       69
  | Max. angular integration grid size:      434
  | Max. angular grid division number :        8
  | Radial grid for Hartree potential :     1277
  | Number of spin channels           :        1

------------------------------------------------------------
          Reading file control.in.
------------------------------------------------------------
  XC: Using PBE gradient-corrected functionals.
  Scalar relativistic treatment of kinetic energy: ZORA.
  Threshold value for ZORA:   0.100000E-11
  Occupation type: Gaussian broadening, width =   0.100000E-03 eV.
  Since 'load_balancing .true.' is present in control.in, automatically turning on 'use_local_index .true.'.
  Using load balancing for integrations.
  Kohn-Sham electronic structure solved by the ELSI library.
  Using pulay charge density mixing.
  Pulay mixing - number of memorized iterations:    5
  Charge density mixing - mixing parameter:     0.4000
  Convergence accuracy of total energy:  0.1000E-05
  Convergence accuracy of sum of eigenvalues:  0.1000E-03
  Convergence accuracy of self-consistent charge density:  0.1000E-05
  Maximum number of s.-c. iterations  :   100
  * Ignoring prodbas_threshold
  Threshold for basis singularities:  0.1000E-04
  override_illconditioning: Explicitly overriding any built-in checks for an ill-conditioned overlap matrix.
  *** WARNING: If you use this flag, you should really know what you are doing.
  *** DO NOT keep this flag set by default in all your control.in files.
  Using 1D integrations for auxiliary 2-center integrals.
  Spin treatment: No spin polarisation.
  Charge =   0.000000E+00: Neutral system requested explicitly.
 
  Reading configuration options for species H                   .
  | Found nuclear charge :   1.0000
  | Found atomic mass :    1.00794000000000      amu
  | Found l_max for Hartree potential  :   6
  | Found cutoff potl. onset [A], width [A], scale factor :    4.00000    2.00000    1.00000
  | Threshold for basis-dependent cutoff potential is   0.100000E-03
  | Found data for basic radial integration grid :    24 points, outermost radius =    7.000 A
  | Found multiplier for basic radial grid :   2
  | Found angular grid specification: user-specified.
  | Specified grid contains     6 separate shells.
  | Check grid settings after all constraints further below.
  | Found free-atom valence shell :  1 s   1.000
  | No ionic wave fns used. Skipping ion_occ.
  | Found hydrogenic basis function :  2 s   2.100
  | Found hydrogenic basis function :  2 p   3.500
  | Found hydrogenic basis function :  1 s   0.850
  | Found hydrogenic basis function :  2 p   3.700
  | Found hydrogenic basis function :  2 s   1.200
  | Found hydrogenic basis function :  3 d   7.000
  Species H                   : Missing cutoff potential type.
  Defaulting to exp(1/x)/(1-x)^2 type cutoff potential.
  Species H : No 'logarithmic' tag. Using default grid for free atom:
  | Default logarithmic grid data [bohr] : 0.1000E-03 0.1000E+03 0.1012E+01
  Species H : On-site basis accuracy parameter (for Gram-Schmidt orthonormalisation) not specified.
  Using default value basis_acc =  0.1000000E-03.
  Species H                   : Using default innermost maximum threshold i_radial=  2 for radial functions.
  Species H                   : Default cutoff onset for free atom density etc. : 0.40000000E+01 AA.
  Species H                   : Basic radial grid will be enhanced according to radial_multiplier =   2, to contain    49 grid points.
 
  Reading configuration options for species C                   .
  | Found nuclear charge :   6.0000
  | Found atomic mass :    12.0107000000000      amu
  | Found l_max for Hartree potential  :   6
  | Found cutoff potl. onset [A], width [A], scale factor :    4.00000    2.00000    1.00000
  | Threshold for basis-dependent cutoff potential is   0.100000E-03
  | Found data for basic radial integration grid :    34 points, outermost radius =    7.000 A
  | Found multiplier for basic radial grid :   2
  | Found angular grid specification: user-specified.
  | Specified grid contains     6 separate shells.
  | Check grid settings after all constraints further below.
  | Found free-atom valence shell :  2 s   2.000
  | Found free-atom valence shell :  2 p   2.000
  | No ionic wave fns used. Skipping ion_occ.
  | No ionic wave fns used. Skipping ion_occ.
  | Found hydrogenic basis function :  2 p   1.700
  | Found hydrogenic basis function :  3 d   6.000
  | Found hydrogenic basis function :  2 s   4.900
  | Found hydrogenic basis function :  4 f   9.800
  | Found hydrogenic basis function :  3 p   5.200
  | Found hydrogenic basis function :  3 s   4.300
  | Found hydrogenic basis function :  5 g  14.400
  | Found hydrogenic basis function :  3 d   6.200
  Species C                   : Missing cutoff potential type.
  Defaulting to exp(1/x)/(1-x)^2 type cutoff potential.
  Species C : No 'logarithmic' tag. Using default grid for free atom:
  | Default logarithmic grid data [bohr] : 0.1000E-03 0.1000E+03 0.1012E+01
  Species C : On-site basis accuracy parameter (for Gram-Schmidt orthonormalisation) not specified.
  Using default value basis_acc =  0.1000000E-03.
  Species C                   : Using default innermost maximum threshold i_radial=  2 for radial functions.
  Species C                   : Default cutoff onset for free atom density etc. : 0.40000000E+01 AA.
  Species C                   : Basic radial grid will be enhanced according to radial_multiplier =   2, to contain    69 grid points.
 
  Finished reading input file 'control.in'. Consistency checks are next.
 
  MPI_IN_PLACE appears to work with this MPI implementation.
  | Keeping use_mpi_in_place .true. (see manual).
  Target number of points in a grid batch is not set. Defaulting to  100
  Method for grid partitioning is not set. Defaulting to parallel hash+maxmin partitioning.
  Batch size limit is not set. Defaulting to    200
  By default, will store active basis functions for each batch.
  If in need of memory, prune_basis_once .false. can be used to disable this option.
  communication_type for Hartree potential was not specified.
  Defaulting to calc_hartree .
  Pulay mixer: Number of initial linear mixing iterations not set.
  Defaulting to    0 iterations.
  Work space size for distributed Hartree potential not set.
  Defaulting to   0.200000E+03 MB.
  Algorithm-dependent basis array size parameters:
  | n_max_pulay                         :        5
  Presetting      1001 iterations before the initial mixing cycle
  is restarted anyway using the sc_init_iter criterion / keyword.
  Presetting a factor      1.000 between actual scf density residual
  and density convergence criterion sc_accuracy_rho below which sc_init_iter
  takes no effect.
  Calculation of forces was not defined in control.in. No forces will be calculated.
  Geometry relaxation not requested: no relaxation will be performed.
  No accuracy limit for integral partition fn. given. Defaulting to  0.1000E-14.
  No threshold value for u(r) in integrations given. Defaulting to  0.1000E-05.
  No accuracy for occupation numbers given. Defaulting to  0.1000E-12.
  No threshold value for occupation numbers given. Defaulting to  0.0000E+00.
  No accuracy for fermi level given. Defaulting to  0.1000E-19.
  Maximum # of iterations to find E_F not set. Defaulting to  200.
  Will not use alltoall communication since running on < 1024 CPUs.
  partition_type (choice of integration weights) for integrals was not specified.
  | Using a version of the partition function of Stratmann and coworkers ('stratmann_sparse').
  | At each grid point, the set of atoms used to build the partition table is smoothly restricted to
  | only those atoms whose free-atom density would be non-zero at that grid point.
  Partitioning for Hartree potential was not defined. Using partition_type for integrals.
  | Adjusted default value of keyword multip_moments_threshold to:       0.10000000E-11
  | This value may affect high angular momentum components of the Hartree potential in periodic systems.
  No q(lm)/r^(l+1) cutoff set for long-range Hartree potential.
  | Using default value of  0.100000E-09 .
  | Verify using the multipole_threshold keyword.
  Defaulting to new monopole extrapolation.
  Density update method: automatic selection selected.
 * Warning: use_local_index and/or load_balancing needs packed_matrix_format = index
 * Changing the default setting to packed_matrix_format = index
------------------------------------------------------------


------------------------------------------------------------
          Reading geometry description geometry.in.
------------------------------------------------------------
  Input structure read successfully.
  The structure contains       46 atoms,  and a total of        186.000 electrons.

  Input geometry:
  | No unit cell requested.
  | Atomic structure:
  |       Atom                x [A]            y [A]            z [A]
  |    1: Species C            19.90045800       21.02556200       54.81718900
  |    2: Species C            19.18927900       22.13242900       54.39781100
  |    3: Species C            19.90594700       19.86609800       54.05655600
  |    4: Species H            20.47763400       21.05602200       55.74041000
  |    5: Species C            18.48751000       22.07924000       53.21145900
  |    6: Species H            19.19727700       23.04552700       54.99381700
  |    7: Species C            19.20025700       19.78071900       52.85480700
  |    8: Species H            20.49119900       19.02190200       54.41434100
  |    9: Species H            17.92805400       22.94496100       52.85525900
  |   10: Species C            18.49456700       20.91985000       52.44969400
  |   11: Species C            19.18692700       18.52778900       52.04662000
  |   12: Species H            17.92876000       20.91817400       51.52013300
  |   13: Species C            18.54710100       18.44985300       50.80795900
  |   14: Species C            19.80323000       17.35453800       52.49656900
  |   15: Species C            18.51024900       17.27540000       50.07653800
  |   16: Species H            18.05335400       19.32305900       50.38654300
  |   17: Species C            19.76951300       16.18508600       51.76560000
  |   18: Species H            20.33132100       17.33601000       53.44741600
  |   19: Species H            17.98827300       17.28334500       49.12138800
  |   20: Species C            19.12027900       16.10996100       50.53011000
  |   21: Species H            20.27282700       15.30829000       52.17116500
  |   22: Species C            19.09048300       14.86105300       49.75272000
  |   23: Species C            18.44438400       14.70336800       48.44137000
  |   24: Species C            19.64954600       13.66233500       50.09986200
  |   25: Species H            17.92037000       15.49444700       47.91284500
  |   26: Species C            18.61139800       13.41330700       48.01633100
  |   27: Species C            19.38687200       12.71909300       49.04802000
  |   28: Species H            20.20547300       13.43065600       51.00270300
  |   29: Species C            18.20758600       12.71058300       46.80937200
  |   30: Species C            19.72874000       11.41339000       48.89290400
  |   31: Species C            17.48935100       13.30012900       45.77836300
  |   32: Species C            18.61139800       11.34848400       46.67056100
  |   33: Species C            19.36491800       10.69255800       47.70134400
  |   34: Species H            20.30913100       10.89014400       49.65466900
  |   35: Species C            17.17884700       12.58984300       44.61012700
  |   36: Species H            17.18174800       14.34220300       45.85897800
  |   37: Species C            18.29932600       10.63180900       45.47696300
  |   38: Species C            19.76088800        9.37586500       47.51429900
  |   39: Species H            16.63350500       13.09083800       43.81326300
  |   40: Species C            17.57481700       11.28832700       44.45252000
  |   41: Species C            18.74077400        9.28863200       45.34109500
  |   42: Species C            19.45822600        8.68796300       46.34221400
  |   43: Species H            20.33853500        8.88105500       48.29350100
  |   44: Species H            17.36162100       10.75698900       43.52454400
  |   45: Species H            18.52263700        8.76117500       44.41221300
  |   46: Species H            19.80142600        7.65990700       46.23646400
  |

  | The smallest distance between any two atoms is         1.08528884 AA.
  |
  | The first atom of this pair is atom number                     24 .
  | The second atom of this pair is atom number                    28 .

  Number of empty states per atom not set in control.in - providing a guess from actual geometry.
  | Total number of empty states used during s.c.f. cycle:      111
  If you use a very high smearing, use empty_states (per atom!) in control.in to increase this value.

  Structure-dependent array size parameters: 
  | Maximum number of distinct radial functions  :       18
  | Maximum number of basis functions            :     1362
  | Number of Kohn-Sham states (occupied + empty):      204
------------------------------------------------------------

------------------------------------------------------------
          Preparing all fixed parts of the calculation.
------------------------------------------------------------
  Determining machine precision:
    2.225073858507201E-308
  Setting up grids for atomic and cluster calculations.

  Creating wave function, potential, and density for free atoms.

  Species: H

  List of occupied orbitals and eigenvalues:
    n    l              occ      energy [Ha]    energy [eV]
    1    0           1.0000        -0.238386        -6.4868


  Species: C

  List of occupied orbitals and eigenvalues:
    n    l              occ      energy [Ha]    energy [eV]
    1    0           2.0000       -10.049212      -273.4530
    2    0           2.0000        -0.504761       -13.7352
    2    1           2.0000        -0.193631        -5.2690

  Creating fixed part of basis set: Ionic, confined, hydrogenic.
 
  H                    hydrogenic:
 
  List of hydrogenic basis orbitals: 
    n    l      effective z      eigenvalue [eV]  inner max. [A]     outer max. [A]     outer radius [A]   
    2    0         2.100000       -14.9965           0.193243           1.317208           5.373006
    2    1         3.500000       -41.6672           0.602369           0.602369           4.056063
    1    0         0.850000        -9.8292           0.624871           0.624871           5.373006
    2    1         3.700000       -46.5653           0.573622           0.573622           3.910002
    2    0         1.200000        -4.5995           0.334980           2.228188           5.505995
    3    2         7.000000       -74.0753           0.680699           0.680699           3.769201
 
 
  C                    hydrogenic:
 
  List of hydrogenic basis orbitals: 
    n    l      effective z      eigenvalue [eV]  inner max. [A]     outer max. [A]     outer radius [A]   
    2    1         1.700000        -9.8152           1.245706           1.245706           5.401630
    3    2         6.000000       -54.4226           0.792453           0.792453           4.178599
    2    0         4.900000       -81.6681           0.082559           0.562749           3.353238
    4    3         9.800000       -81.6681           0.863254           0.863254           4.028125
    3    1         5.200000       -40.8774           0.305389           1.215618           4.898362
    3    0         4.300000       -27.9508           0.091041           1.610311           5.401630
    5    4        14.400000      -112.8510           0.917666           0.917666           3.883070
    3    2         6.200000       -58.1113           0.763917           0.763917           4.077671
 

  Adding cutoff potential to free-atom effective potential.
  Creating atomic-like basis functions for current effective potential.

  Species H                   :

  List of atomic basis orbitals and eigenvalues:
    n    l      energy [Ha]    energy [eV]    outer radius [A]
    1    0        -0.238386        -6.4868       5.373006


  Species C                   :

  List of atomic basis orbitals and eigenvalues:
    n    l      energy [Ha]    energy [eV]    outer radius [A]
    1    0       -10.049212      -273.4530       1.934409
    2    0        -0.504761       -13.7352       5.271162
    2    1        -0.193631        -5.2690       5.401630

  Assembling full basis from fixed parts.
  | Species H :   atomic orbital   1 s accepted.
  | Species H :    hydro orbital   2 s accepted.
  | Species H :    hydro orbital   1 s accepted.
  | Species H :    hydro orbital   2 s accepted.
  | Species H :    hydro orbital   2 p accepted.
  | Species H :    hydro orbital   2 p accepted.
  | Species H :    hydro orbital   3 d accepted.
  | Species C :   atomic orbital   1 s accepted.
  | Species C :    hydro orbital   2 s accepted.
  | Species C :   atomic orbital   2 s accepted.
  | Species C :    hydro orbital   3 s accepted.
  | Species C :    hydro orbital   3 p accepted.
  | Species C :   atomic orbital   2 p accepted.
  | Species C :    hydro orbital   2 p accepted.
  | Species C :    hydro orbital   3 d accepted.
  | Species C :    hydro orbital   3 d accepted.
  | Species C :    hydro orbital   4 f accepted.
  | Species C :    hydro orbital   5 g accepted.
 
  Basis size parameters after reduction:
  | Total number of radial functions:       18
  | Total number of basis functions :     1362
 
  Per-task memory consumption for arrays in subroutine allocate_ext:
  |           4.445376MB.
  Testing on-site integration grid accuracy.
  |  Species  Function  <phi|h_atom|phi> (log., in eV)  <phi|h_atom|phi> (rad., in eV)
           1        1                 -6.4870767962                 -6.4871688290
           1        2                 13.5032046589                 13.5028982997
           1        3                 32.8195184817                 32.8119941656
           1        4                 33.8513856511                 33.7670005767 ***
           1        5                 28.8544614965                 28.8544615203
           1        6                 59.6326952547                 59.6327656460
           1        7                 60.2719308513                 60.2719305949
           2        8               -273.4529726040               -273.4529710464
           2        9                -10.7721037319                -10.7721022101
           2       10                 17.6044132601                 17.6044162063
           2       11                 53.7706460658                 53.7706913770
           2       12                 15.0973290362                 15.0973256030
           2       13                  3.8545134692                  3.8545724687
           2       14                 12.1156992592                 12.1182024431
           2       15                 29.4352039302                 29.4352041816
           2       16                 54.8741144708                 54.8740268729
           2       17                 59.3556032049                 59.3556031382
           2       18                 93.4551837154                 93.4551838009
 * Note: Onsite integrals marked "***" above are less accurate than
 * onsite_accuracy_threshold =    0.03000 eV. Usually, this is harmless.
 * When in doubt, tighten the "radial" and/or "radial_multiplier" flags to check.

  Preparing densities etc. for the partition functions (integrals / Hartree potential).

  Preparations completed.
  max(cpu_time)          :      0.209 s.
  Wall clock time (cpu1) :      0.254 s.
------------------------------------------------------------

------------------------------------------------------------
          Begin self-consistency loop: Initialization.

          Date     :  20210620, Time     :  160621.218
------------------------------------------------------------

  Initializing index lists of integration centers etc. from given atomic structure:
  | Number of centers in hartree potential         :        46
  | Number of centers in hartree multipole         :        46
  | Number of centers in electron density summation:        46
  | Number of centers in basis integrals           :        46
  | Number of centers in integrals                 :        46
  | Number of centers in hamiltonian               :        46
  * Using 56 tasks for Scalapack Eigenvalue solver.
  Detailed listing of tasks and assigned k-points:
  (for non-periodic systems, the "k-point" denotes an internal label only)
   Task     0 k-point     1 on d030
   Task     1 k-point     1 on d030
   Task     2 k-point     1 on d030
   Task     3 k-point     1 on d030
   Task     4 k-point     1 on d030
   Task     5 k-point     1 on d030
   Task     6 k-point     1 on d030
   Task     7 k-point     1 on d030
   Task     8 k-point     1 on d030
   Task     9 k-point     1 on d030
   Task    10 k-point     1 on d030
   Task    11 k-point     1 on d030
   Task    12 k-point     1 on d030
   Task    13 k-point     1 on d030
   Task    14 k-point     1 on d030
   Task    15 k-point     1 on d030
   Task    16 k-point     1 on d030
   Task    17 k-point     1 on d030
   Task    18 k-point     1 on d030
   Task    19 k-point     1 on d030
   Task    20 k-point     1 on d030
   Task    21 k-point     1 on d030
   Task    22 k-point     1 on d030
   Task    23 k-point     1 on d030
   Task    24 k-point     1 on d030
   Task    25 k-point     1 on d030
   Task    26 k-point     1 on d030
   Task    27 k-point     1 on d030
   Task    28 k-point     1 on d030
   Task    29 k-point     1 on d030
   Task    30 k-point     1 on d030
   Task    31 k-point     1 on d030
   Task    32 k-point     1 on d030
   Task    33 k-point     1 on d030
   Task    34 k-point     1 on d030
   Task    35 k-point     1 on d030
   Task    36 k-point     1 on d030
   Task    37 k-point     1 on d030
   Task    38 k-point     1 on d030
   Task    39 k-point     1 on d030
   Task    40 k-point     1 on d030
   Task    41 k-point     1 on d030
   Task    42 k-point     1 on d030
   Task    43 k-point     1 on d030
   Task    44 k-point     1 on d030
   Task    45 k-point     1 on d030
   Task    46 k-point     1 on d030
   Task    47 k-point     1 on d030
   Task    48 k-point     1 on d030
   Task    49 k-point     1 on d030
   Task    50 k-point     1 on d030
   Task    51 k-point     1 on d030
   Task    52 k-point     1 on d030
   Task    53 k-point     1 on d030
   Task    54 k-point     1 on d030
   Task    55 k-point     1 on d030
  Tasks:    56 split into      8 X      7 BLACS grid
  Calculating block size based on n_basis =         1362 max_nprow =            8 max_npcol =            7
  ScaLAPACK block size set to:           16
  Allocating        0.293 MB for ovlp
  Allocating        0.293 MB for ham
  Allocating        0.293 MB for eigenvec
  Required Scalapack workspace - INTEGER:            1 REAL:             1
  Partitioning the integration grid into batches with parallel hashing+maxmin method.
  | Number of batches:     7058
  | Maximal batch size:     200
  | Minimal batch size:       1
  | Average batch size:     108.570
  | Standard deviation of batch sizes:      30.790

  Integration load balanced across     56 MPI tasks.
  Work distribution over tasks is as follows:
  Task      0 has      13736 integration points.
  Task      1 has      13698 integration points.
  Task      2 has      13664 integration points.
  Task      3 has      13782 integration points.
  Task      4 has      13680 integration points.
  Task      5 has      13691 integration points.
  Task      6 has      13613 integration points.
  Task      7 has      13855 integration points.
  Task      8 has      13763 integration points.
  Task      9 has      13516 integration points.
  Task     10 has      13756 integration points.
  Task     11 has      13625 integration points.
  Task     12 has      13663 integration points.
  Task     13 has      13626 integration points.
  Task     14 has      13754 integration points.
  Task     15 has      13725 integration points.
  Task     16 has      13625 integration points.
  Task     17 has      13708 integration points.
  Task     18 has      13692 integration points.
  Task     19 has      13788 integration points.
  Task     20 has      13516 integration points.
  Task     21 has      13792 integration points.
  Task     22 has      13659 integration points.
  Task     23 has      13659 integration points.
  Task     24 has      13758 integration points.
  Task     25 has      13683 integration points.
  Task     26 has      13667 integration points.
  Task     27 has      13574 integration points.
  Task     28 has      13714 integration points.
  Task     29 has      13711 integration points.
  Task     30 has      13668 integration points.
  Task     31 has      13806 integration points.
  Task     32 has      13638 integration points.
  Task     33 has      13709 integration points.
  Task     34 has      13558 integration points.
  Task     35 has      13768 integration points.
  Task     36 has      13687 integration points.
  Task     37 has      13602 integration points.
  Task     38 has      13734 integration points.
  Task     39 has      13621 integration points.
  Task     40 has      13699 integration points.
  Task     41 has      13647 integration points.
  Task     42 has      13741 integration points.
  Task     43 has      13741 integration points.
  Task     44 has      13586 integration points.
  Task     45 has      13702 integration points.
  Task     46 has      13675 integration points.
  Task     47 has      13700 integration points.
  Task     48 has      13583 integration points.
  Task     49 has      13781 integration points.
  Task     50 has      13690 integration points.
  Task     51 has      13663 integration points.
  Task     52 has      13697 integration points.
  Task     53 has      13614 integration points.
  Task     54 has      13729 integration points.
  Task     55 has      13552 integration points.
  Initializing partition tables, free-atom densities, potentials, etc. across the integration grid (initialize_grid_storage).
  | initialize_grid_storage: Actual outermost partition radius vs. multipole_radius_free
  | (-- VB: in principle, multipole_radius_free should be larger, hence this output)
  | Species        1: Confinement radius =              6.000000000000000 AA, multipole_radius_free =              6.071692442739658 AA.
  | Species        1: outer_partition_radius set to              6.071692442739658 AA .
  | Species        2: Confinement radius =              6.000000000000000 AA, multipole_radius_free =              6.029870734432609 AA.
  | Species        2: outer_partition_radius set to              6.029870734432609 AA .
  | The sparse table of interatomic distances needs     24.1160 kbyte instead of    16.9280 kbyte of memory.
  | Using the partition_type stratmann_smoother will reduce your memory usage.
  | Net number of integration points:   766284
  | of which are non-zero points    :   618212
  Renormalizing the initial density to the exact electron count on the 3D integration grid.
  | Initial density: Formal number of electrons (from input files) :     186.0000000000
  | Integrated number of electrons on 3D grid     :     186.0000061445
  | Charge integration error                      :       0.0000061445
  | Normalization factor for density and gradient :       0.9999999670
  Obtaining max. number of non-zero basis functions in each batch (get_n_compute_maxes).
  | Maximal number of non-zero basis functions:      759
  Selecting the method for density update.
  Loop over occupied states selected for charge density update.
  Hamiltonian matrix size:
  | Size of matrix non-packed:                928203
  | Size of matrix packed:          675682
  Allocating        2.223 MB for KS_eigenvector
  use_local_index: Max. local matrix size =       418698
  Task:     0 matrix size:     183315
  Task:     1 matrix size:     147153
  Task:     2 matrix size:     255855
  Task:     3 matrix size:     136997
  Task:     4 matrix size:     194225
  Task:     5 matrix size:     305883
  Task:     6 matrix size:     331227
  Task:     7 matrix size:     131328
  Task:     8 matrix size:     174936
  Task:     9 matrix size:     143916
  Task:    10 matrix size:     269225
  Task:    11 matrix size:     275094
  Task:    12 matrix size:     361998
  Task:    13 matrix size:     368048
  Task:    14 matrix size:     256531
  Task:    15 matrix size:     401000
  Task:    16 matrix size:     413996
  Task:    17 matrix size:     343453
  Task:    18 matrix size:     386830
  Task:    19 matrix size:     405704
  Task:    20 matrix size:     316590
  Task:    21 matrix size:     157080
  Task:    22 matrix size:     418698
  Task:    23 matrix size:     405913
  Task:    24 matrix size:     199326
  Task:    25 matrix size:     297504
  Task:    26 matrix size:     351880
  Task:    27 matrix size:     261433
  Task:    28 matrix size:     268822
  Task:    29 matrix size:     346444
  Task:    30 matrix size:     306104
  Task:    31 matrix size:     389942
  Task:    32 matrix size:     375564
  Task:    33 matrix size:     228151
  Task:    34 matrix size:     137912
  Task:    35 matrix size:     395342
  Task:    36 matrix size:     374649
  Task:    37 matrix size:     355871
  Task:    38 matrix size:     312033
  Task:    39 matrix size:     293783
  Task:    40 matrix size:     267943
  Task:    41 matrix size:     220266
  Task:    42 matrix size:     308292
  Task:    43 matrix size:     267059
  Task:    44 matrix size:     273468
  Task:    45 matrix size:     138580
  Task:    46 matrix size:      88831
  Task:    47 matrix size:     114960
  Task:    48 matrix size:      84255
  Task:    49 matrix size:     290973
  Task:    50 matrix size:     257148
  Task:    51 matrix size:     203020
  Task:    52 matrix size:     179229
  Task:    53 matrix size:     131316
  Task:    54 matrix size:     109278
  Task:    55 matrix size:      74305
  Integrating Hamiltonian matrix: batch-based integration.
  Time summed over all CPUs for integration: real work      108.304 s, elapsed      191.470 s
  Time get_set_sparse_local_matrix_scalapack:     0.056257 s
  Start compute_balanced_batch_distribution
  Done load balancing, time needed:      0.009 s
  Integrating overlap matrix with loadbalancing
  Time summed over all CPUs for integration: real work       29.340 s, elapsed       35.719 s
  Time get_set_full_local_matrix_scalapack:     0.010930 s

  Updating Kohn-Sham eigenvalues and eigenvectors using ELSI and the ELPA eigensolver.
  Overlap matrix is not singular
  | Lowest and highest eigenvalues :  0.11E+02,  0.88E-04
  Finished singularity check of overlap matrix
  | Time :     0.082 s
  Finished Cholesky decomposition
  | Time :     0.018 s
  Finished transformation to standard eigenproblem
  | Time :     0.012 s
  Starting ELPA eigensolver
  Finished solving standard eigenproblem
  | Time :     0.078 s
  Finished back-transformation of eigenvectors
  | Time :     0.004 s

  Obtaining occupation numbers and chemical potential using ELSI.
  | Chemical potential (Fermi level):    -8.35260824 eV
  Writing Kohn-Sham eigenvalues.

  State    Occupation    Eigenvalue [Ha]    Eigenvalue [eV]
      1       2.00000         -10.173951         -276.84728
      2       2.00000         -10.173585         -276.83734
      3       2.00000         -10.172974         -276.82071
      4       2.00000         -10.172852         -276.81738
      5       2.00000         -10.172469         -276.80697
      6       2.00000         -10.172169         -276.79879
      7       2.00000         -10.172025         -276.79488
      8       2.00000         -10.171566         -276.78239
      9       2.00000         -10.171429         -276.77865
     10       2.00000         -10.171153         -276.77115
     11       2.00000         -10.171134         -276.77064
     12       2.00000         -10.170454         -276.75213
     13       2.00000         -10.170245         -276.74646
     14       2.00000         -10.169557         -276.72774
     15       2.00000         -10.169391         -276.72321
     16       2.00000         -10.169053         -276.71402
     17       2.00000         -10.168661         -276.70335
     18       2.00000         -10.168025         -276.68603
     19       2.00000         -10.165889         -276.62791
     20       2.00000         -10.165748         -276.62409
     21       2.00000         -10.165352         -276.61330
     22       2.00000         -10.165079         -276.60587
     23       2.00000         -10.164465         -276.58918
     24       2.00000         -10.164074         -276.57853
     25       2.00000         -10.163167         -276.55385
     26       2.00000         -10.162996         -276.54919
     27       2.00000         -10.162363         -276.53196
     28       2.00000         -10.161461         -276.50743
     29       2.00000          -1.023039          -27.83830
     30       2.00000          -1.006102          -27.37744
     31       2.00000          -1.000362          -27.22123
     32       2.00000          -0.989201          -26.91752
     33       2.00000          -0.963934          -26.22998
     34       2.00000          -0.936584          -25.48574
     35       2.00000          -0.915019          -24.89893
     36       2.00000          -0.894663          -24.34502
     37       2.00000          -0.889935          -24.21637
     38       2.00000          -0.883188          -24.03276
     39       2.00000          -0.881252          -23.98007
     40       2.00000          -0.876924          -23.86231
     41       2.00000          -0.854046          -23.23978
     42       2.00000          -0.840246          -22.86426
     43       2.00000          -0.793500          -21.59223
     44       2.00000          -0.777301          -21.15144
     45       2.00000          -0.763273          -20.76973
     46       2.00000          -0.761267          -20.71513
     47       2.00000          -0.749011          -20.38164
     48       2.00000          -0.741115          -20.16676
     49       2.00000          -0.728657          -19.82776
     50       2.00000          -0.726362          -19.76532
     51       2.00000          -0.687932          -18.71958
     52       2.00000          -0.677578          -18.43783
     53       2.00000          -0.667810          -18.17203
     54       2.00000          -0.656580          -17.86644
     55       2.00000          -0.652329          -17.75077
     56       2.00000          -0.645793          -17.57291
     57       2.00000          -0.635341          -17.28852
     58       2.00000          -0.631146          -17.17434
     59       2.00000          -0.610786          -16.62033
     60       2.00000          -0.609662          -16.58975
     61       2.00000          -0.600299          -16.33498
     62       2.00000          -0.591174          -16.08666
     63       2.00000          -0.586959          -15.97197
     64       2.00000          -0.575382          -15.65695
     65       2.00000          -0.571883          -15.56172
     66       2.00000          -0.571029          -15.53848
     67       2.00000          -0.567827          -15.45136
     68       2.00000          -0.563981          -15.34669
     69       2.00000          -0.556931          -15.15486
     70       2.00000          -0.540148          -14.69817
     71       2.00000          -0.537130          -14.61605
     72       2.00000          -0.536811          -14.60736
     73       2.00000          -0.528072          -14.36956
     74       2.00000          -0.523450          -14.24380
     75       2.00000          -0.521211          -14.18286
     76       2.00000          -0.518010          -14.09577
     77       2.00000          -0.508706          -13.84258
     78       2.00000          -0.504033          -13.71543
     79       2.00000          -0.502309          -13.66853
     80       2.00000          -0.495072          -13.47159
     81       2.00000          -0.493788          -13.43666
     82       2.00000          -0.484265          -13.17752
     83       2.00000          -0.481204          -13.09422
     84       2.00000          -0.475267          -12.93268
     85       2.00000          -0.449527          -12.23225
     86       2.00000          -0.426559          -11.60727
     87       2.00000          -0.413388          -11.24885
     88       2.00000          -0.405859          -11.04399
     89       2.00000          -0.401876          -10.93562
     90       2.00000          -0.397278          -10.81050
     91       2.00000          -0.390121          -10.61572
     92       2.00000          -0.358411           -9.75285
     93       2.00000          -0.350373           -9.53413
     94       0.00000          -0.286934           -7.80786
     95       0.00000          -0.242415           -6.59646
     96       0.00000          -0.215291           -5.85836
     97       0.00000          -0.213550           -5.81100
     98       0.00000          -0.209657           -5.70505
     99       0.00000          -0.201878           -5.49339
    100       0.00000          -0.187789           -5.11000
    101       0.00000          -0.177558           -4.83159
    102       0.00000          -0.124211           -3.37994
    103       0.00000          -0.105577           -2.87290
    104       0.00000          -0.093096           -2.53326
    105       0.00000          -0.075678           -2.05930
    106       0.00000          -0.070492           -1.91817
    107       0.00000          -0.066192           -1.80118
    108       0.00000          -0.065230           -1.77499
    109       0.00000          -0.061648           -1.67752
    110       0.00000          -0.053146           -1.44618
    111       0.00000          -0.048186           -1.31121
    112       0.00000          -0.038772           -1.05504
    113       0.00000          -0.036107           -0.98252
    114       0.00000          -0.026664           -0.72555
    115       0.00000          -0.025940           -0.70586
    116       0.00000          -0.024802           -0.67490
    117       0.00000          -0.020974           -0.57073
    118       0.00000          -0.014100           -0.38367
    119       0.00000          -0.011091           -0.30179
    120       0.00000          -0.006135           -0.16694
    121       0.00000          -0.003934           -0.10705
    122       0.00000          -0.001348           -0.03667
    123       0.00000           0.003020            0.08217
    124       0.00000           0.004991            0.13582
    125       0.00000           0.008464            0.23031
    126       0.00000           0.011456            0.31172
    127       0.00000           0.017278            0.47017
    128       0.00000           0.023239            0.63236
    129       0.00000           0.025803            0.70213
    130       0.00000           0.028607            0.77845
    131       0.00000           0.035937            0.97788
    132       0.00000           0.037232            1.01314
    133       0.00000           0.039827            1.08376
    134       0.00000           0.041035            1.11662
    135       0.00000           0.044276            1.20482
    136       0.00000           0.048276            1.31365
    137       0.00000           0.052175            1.41975
    138       0.00000           0.054593            1.48556
    139       0.00000           0.057827            1.57356
    140       0.00000           0.063994            1.74137
    141       0.00000           0.065236            1.77517
    142       0.00000           0.068861            1.87381
    143       0.00000           0.069974            1.90408
    144       0.00000           0.073516            2.00046
    145       0.00000           0.077156            2.09952
    146       0.00000           0.081175            2.20889
    147       0.00000           0.083978            2.28517
    148       0.00000           0.084562            2.30106
    149       0.00000           0.086546            2.35505
    150       0.00000           0.088402            2.40555
    151       0.00000           0.091032            2.47709
    152       0.00000           0.097281            2.64716
    153       0.00000           0.102947            2.80133
    154       0.00000           0.103342            2.81207
    155       0.00000           0.104565            2.84537
    156       0.00000           0.107740            2.93174
    157       0.00000           0.112163            3.05211
    158       0.00000           0.113806            3.09681
    159       0.00000           0.115710            3.14864
    160       0.00000           0.122839            3.34262
    161       0.00000           0.125824            3.42384
    162       0.00000           0.128779            3.50425
    163       0.00000           0.129905            3.53490
    164       0.00000           0.131118            3.56790
    165       0.00000           0.132552            3.60693
    166       0.00000           0.138507            3.76896
    167       0.00000           0.140622            3.82651
    168       0.00000           0.142478            3.87703
    169       0.00000           0.144068            3.92030
    170       0.00000           0.147298            4.00819
    171       0.00000           0.149569            4.06998
    172       0.00000           0.154596            4.20678
    173       0.00000           0.159603            4.34301
    174       0.00000           0.162603            4.42466
    175       0.00000           0.164201            4.46814
    176       0.00000           0.168681            4.59003
    177       0.00000           0.171480            4.66620
    178       0.00000           0.174335            4.74390
    179       0.00000           0.176592            4.80530
    180       0.00000           0.180817            4.92028
    181       0.00000           0.182636            4.96979
    182       0.00000           0.183080            4.98187
    183       0.00000           0.186985            5.08813
    184       0.00000           0.193999            5.27899
    185       0.00000           0.196753            5.35393
    186       0.00000           0.199500            5.42866
    187       0.00000           0.202619            5.51354
    188       0.00000           0.203313            5.53243
    189       0.00000           0.208088            5.66237
    190       0.00000           0.209921            5.71224
    191       0.00000           0.216233            5.88399
    192       0.00000           0.216409            5.88879
    193       0.00000           0.219475            5.97223
    194       0.00000           0.221889            6.03791
    195       0.00000           0.223362            6.07800
    196       0.00000           0.225976            6.14911
    197       0.00000           0.231192            6.29105
    198       0.00000           0.236565            6.43727
    199       0.00000           0.239848            6.52660
    200       0.00000           0.242061            6.58682
    201       0.00000           0.249168            6.78021
    202       0.00000           0.256076            6.96818
    203       0.00000           0.260189            7.08010
    204       0.00000           0.263865            7.18014

  Highest occupied state (VBM) at     -9.53412604 eV
  | Occupation number:      2.00000000

  Lowest unoccupied state (CBM) at    -7.80786020 eV
  | Occupation number:      0.00000000

  Overall HOMO-LUMO gap:      1.72626584 eV.
  Calculating total energy contributions from superposition of free atom densities.

  Total energy components:
  | Sum of eigenvalues            :        -653.23911031 Ha      -17775.54060096 eV
  | XC energy correction          :        -154.67437973 Ha       -4208.90401908 eV
  | XC potential correction       :         198.67354148 Ha        5406.18212727 eV
  | Free-atom electrostatic energy:        -469.47100134 Ha      -12774.95592897 eV
  | Hartree energy correction     :           0.00000000 Ha           0.00000000 eV
  | Entropy correction            :           0.00000000 Ha           0.00000000 eV
  | ---------------------------
  | Total energy                  :       -1078.71094989 Ha      -29353.21842174 eV
  | Total energy, T -> 0          :       -1078.71094989 Ha      -29353.21842174 eV  <-- do not rely on this value for anything but (periodic) metals
  | Electronic free energy        :       -1078.71094989 Ha      -29353.21842174 eV

  Derived energy quantities:
  | Kinetic energy                :        1068.34249721 Ha       29071.07846939 eV
  | Electrostatic energy          :       -1992.37906737 Ha      -54215.39287206 eV
  | Energy correction for multipole
  | error in Hartree potential    :           0.00000000 Ha           0.00000000 eV
  | Sum of eigenvalues per atom                           :        -386.42479567 eV
  | Total energy (T->0) per atom                          :        -638.11344395 eV  <-- do not rely on this value for anything but (periodic) metals
  | Electronic free energy per atom                       :        -638.11344395 eV
  Initialize hartree_potential_storage
  Max. number of atoms included in rho_multipole:           46

  End scf initialization - timings             :  max(cpu_time)    wall_clock(cpu1)
  | Time for scf. initialization               :        5.690 s           6.332 s
  | Boundary condition initialization          :        0.001 s           0.003 s
  | Integration                                :        4.108 s           4.156 s
  | Solution of K.-S. eqns.                    :        0.202 s           0.225 s
  | Grid partitioning                          :        0.778 s           0.797 s
  | Preloading free-atom quantities on grid    :        0.028 s           0.284 s
  | Free-atom superposition energy             :        0.078 s           0.079 s
  | Total energy evaluation                    :        0.001 s           0.005 s

  Partial memory accounting:
  | Current value for overall tracked memory usage on task 0  :           3.835 MB
  | Peak value for overall tracked memory usage on task 0     :          20.858 MB after allocating zora_vector2
  | Largest tracked array allocation on task 0 so far         :           4.609 MB  when allocating hamiltonian_shell
  Note:  These values currently only include a subset of arrays which are explicitly tracked.
  The "true" memory usage will be greater.
------------------------------------------------------------

------------------------------------------------------------
          Begin self-consistency iteration #    1

  Date     :  20210620, Time     :  160627.552
------------------------------------------------------------
  Evaluating new KS density.
  Integration grid: deviation in total charge (<rho> - N_e) =   0.000000E+00
  Pulay mixing of updated and previous charge densities.

  Evaluating partitioned Hartree potential by multipole expansion.
  | Analytical far-field extrapolation by fixed multipoles:
  | Hartree multipole sum: apparent total charge =  -0.245580E-05
  Summing up the Hartree potential with load balancing.
  Time summed over all CPUs for potential: real work       29.006 s, elapsed       40.201 s
  | RMS charge density error from multipole expansion :   0.126263E-01

  Start compute_balanced_batch_distribution
  Done load balancing, time needed:      0.007 s
  Integrating Hamiltonian matrix: batch-based integration with load balancing
  Time summed over all CPUs for integration: real work      116.610 s, elapsed      131.893 s
  Time get_set_full_local_matrix_scalapack:     0.010536 s
  Start compute_balanced_batch_distribution
  Done load balancing, time needed:      0.006 s

  Updating Kohn-Sham eigenvalues and eigenvectors using ELSI and the ELPA eigensolver.
  Finished transformation to standard eigenproblem
  | Time :     0.013 s
  Starting ELPA eigensolver
  Finished solving standard eigenproblem
  | Time :     0.077 s
  Finished back-transformation of eigenvectors
  | Time :     0.004 s

  Obtaining occupation numbers and chemical potential using ELSI.
  | Chemical potential (Fermi level):    -4.97570519 eV
  Writing Kohn-Sham eigenvalues.

  State    Occupation    Eigenvalue [Ha]    Eigenvalue [eV]
      1       2.00000          -9.984410         -271.68963
      2       2.00000          -9.982876         -271.64788
      3       2.00000          -9.977843         -271.51093
      4       2.00000          -9.975616         -271.45032
      5       2.00000          -9.974524         -271.42060
      6       2.00000          -9.974517         -271.42042
      7       2.00000          -9.974329         -271.41530
      8       2.00000          -9.972553         -271.36697
      9       2.00000          -9.971663         -271.34276
     10       2.00000          -9.967036         -271.21685
     11       2.00000          -9.958775         -270.99204
     12       2.00000          -9.958210         -270.97667
     13       2.00000          -9.957126         -270.94718
     14       2.00000          -9.956470         -270.92935
     15       2.00000          -9.950649         -270.77094
     16       2.00000          -9.949820         -270.74838
     17       2.00000          -9.947166         -270.67615
     18       2.00000          -9.945081         -270.61941
     19       2.00000          -9.944435         -270.60183
     20       2.00000          -9.944420         -270.60145
     21       2.00000          -9.943777         -270.58395
     22       2.00000          -9.942736         -270.55561
     23       2.00000          -9.941454         -270.52072
     24       2.00000          -9.939376         -270.46419
     25       2.00000          -9.939045         -270.45516
     26       2.00000          -9.936231         -270.37860
     27       2.00000          -9.931436         -270.24812
     28       2.00000          -9.921939         -269.98970
     29       2.00000          -0.872377          -23.73860
     30       2.00000          -0.849997          -23.12958
     31       2.00000          -0.840559          -22.87277
     32       2.00000          -0.825854          -22.47263
     33       2.00000          -0.819852          -22.30932
     34       2.00000          -0.791720          -21.54381
     35       2.00000          -0.764142          -20.79337
     36       2.00000          -0.750918          -20.43351
     37       2.00000          -0.740771          -20.15741
     38       2.00000          -0.738122          -20.08532
     39       2.00000          -0.728364          -19.81979
     40       2.00000          -0.725147          -19.73224
     41       2.00000          -0.704278          -19.16437
     42       2.00000          -0.682752          -18.57864
     43       2.00000          -0.652733          -17.76178
     44       2.00000          -0.632623          -17.21456
     45       2.00000          -0.627521          -17.07571
     46       2.00000          -0.621817          -16.92050
     47       2.00000          -0.602473          -16.39411
     48       2.00000          -0.601138          -16.35780
     49       2.00000          -0.584874          -15.91523
     50       2.00000          -0.581420          -15.82124
     51       2.00000          -0.548658          -14.92974
     52       2.00000          -0.542512          -14.76249
     53       2.00000          -0.533208          -14.50934
     54       2.00000          -0.528224          -14.37369
     55       2.00000          -0.515757          -14.03445
     56       2.00000          -0.512396          -13.94302
     57       2.00000          -0.496268          -13.50415
     58       2.00000          -0.484446          -13.18244
     59       2.00000          -0.478767          -13.02791
     60       2.00000          -0.474910          -12.92297
     61       2.00000          -0.455331          -12.39019
     62       2.00000          -0.450643          -12.26263
     63       2.00000          -0.449705          -12.23709
     64       2.00000          -0.446727          -12.15606
     65       2.00000          -0.441875          -12.02403
     66       2.00000          -0.438505          -11.93231
     67       2.00000          -0.428477          -11.65945
     68       2.00000          -0.423513          -11.52439
     69       2.00000          -0.420151          -11.43290
     70       2.00000          -0.417132          -11.35073
     71       2.00000          -0.410604          -11.17310
     72       2.00000          -0.402484          -10.95214
     73       2.00000          -0.394537          -10.73590
     74       2.00000          -0.393937          -10.71957
     75       2.00000          -0.383965          -10.44822
     76       2.00000          -0.379463          -10.32571
     77       2.00000          -0.372252          -10.12949
     78       2.00000          -0.367677          -10.00499
     79       2.00000          -0.363138           -9.88150
     80       2.00000          -0.359050           -9.77025
     81       2.00000          -0.358463           -9.75428
     82       2.00000          -0.357214           -9.72030
     83       2.00000          -0.346393           -9.42583
     84       2.00000          -0.342705           -9.32548
     85       2.00000          -0.327250           -8.90492
     86       2.00000          -0.300113           -8.16650
     87       2.00000          -0.291367           -7.92851
     88       2.00000          -0.278598           -7.58102
     89       2.00000          -0.274535           -7.47047
     90       2.00000          -0.268808           -7.31463
     91       2.00000          -0.260572           -7.09052
     92       2.00000          -0.230792           -6.28017
     93       2.00000          -0.214102           -5.82602
     94       0.00000          -0.165633           -4.50711
     95       0.00000          -0.116657           -3.17441
     96       0.00000          -0.097109           -2.64247
     97       0.00000          -0.090775           -2.47012
     98       0.00000          -0.085952           -2.33888
     99       0.00000          -0.073134           -1.99007
    100       0.00000          -0.066727           -1.81573
    101       0.00000          -0.050054           -1.36203
    102       0.00000          -0.030750           -0.83674
    103       0.00000          -0.028313           -0.77044
    104       0.00000          -0.021426           -0.58303
    105       0.00000          -0.016302           -0.44359
    106       0.00000          -0.012808           -0.34852
    107       0.00000          -0.006082           -0.16550
    108       0.00000          -0.001690           -0.04598
    109       0.00000          -0.001015           -0.02763
    110       0.00000           0.006423            0.17479
    111       0.00000           0.012534            0.34105
    112       0.00000           0.013065            0.35551
    113       0.00000           0.024201            0.65855
    114       0.00000           0.027171            0.73936
    115       0.00000           0.031273            0.85098
    116       0.00000           0.039757            1.08185
    117       0.00000           0.043844            1.19307
    118       0.00000           0.055748            1.51698
    119       0.00000           0.056599            1.54012
    120       0.00000           0.060180            1.63758
    121       0.00000           0.060640            1.65010
    122       0.00000           0.071382            1.94240
    123       0.00000           0.076365            2.07799
    124       0.00000           0.083321            2.26727
    125       0.00000           0.086926            2.36538
    126       0.00000           0.087176            2.37218
    127       0.00000           0.088641            2.41205
    128       0.00000           0.096141            2.61614
    129       0.00000           0.097299            2.64765
    130       0.00000           0.104280            2.83760
    131       0.00000           0.106773            2.90543
    132       0.00000           0.110296            3.00132
    133       0.00000           0.112391            3.05830
    134       0.00000           0.114612            3.11874
    135       0.00000           0.117390            3.19434
    136       0.00000           0.120997            3.29250
    137       0.00000           0.121856            3.31587
    138       0.00000           0.125518            3.41552
    139       0.00000           0.126643            3.44614
    140       0.00000           0.129679            3.52874
    141       0.00000           0.131318            3.57335
    142       0.00000           0.135439            3.68549
    143       0.00000           0.139062            3.78406
    144       0.00000           0.141991            3.86377
    145       0.00000           0.143857            3.91454
    146       0.00000           0.147099            4.00276
    147       0.00000           0.152809            4.15814
    148       0.00000           0.153512            4.17728
    149       0.00000           0.156741            4.26513
    150       0.00000           0.158408            4.31050
    151       0.00000           0.161746            4.40133
    152       0.00000           0.162974            4.43474
    153       0.00000           0.173044            4.70878
    154       0.00000           0.173682            4.72612
    155       0.00000           0.177634            4.83368
    156       0.00000           0.178523            4.85786
    157       0.00000           0.181816            4.94745
    158       0.00000           0.185406            5.04516
    159       0.00000           0.187214            5.09434
    160       0.00000           0.189146            5.14693
    161       0.00000           0.190353            5.17977
    162       0.00000           0.192436            5.23644
    163       0.00000           0.194265            5.28622
    164       0.00000           0.195513            5.32018
    165       0.00000           0.200484            5.45545
    166       0.00000           0.204039            5.55219
    167       0.00000           0.210188            5.71951
    168       0.00000           0.213048            5.79734
    169       0.00000           0.214183            5.82822
    170       0.00000           0.221365            6.02364
    171       0.00000           0.222482            6.05404
    172       0.00000           0.225041            6.12369
    173       0.00000           0.227735            6.19700
    174       0.00000           0.228220            6.21018
    175       0.00000           0.236272            6.42930
    176       0.00000           0.240382            6.54112
    177       0.00000           0.242072            6.58711
    178       0.00000           0.243851            6.63553
    179       0.00000           0.246016            6.69443
    180       0.00000           0.250191            6.80804
    181       0.00000           0.253572            6.90004
    182       0.00000           0.256636            6.98341
    183       0.00000           0.257595            7.00952
    184       0.00000           0.262641            7.14682
    185       0.00000           0.266458            7.25069
    186       0.00000           0.270534            7.36160
    187       0.00000           0.272432            7.41325
    188       0.00000           0.274234            7.46227
    189       0.00000           0.278837            7.58753
    190       0.00000           0.280344            7.62855
    191       0.00000           0.281274            7.65386
    192       0.00000           0.290697            7.91028
    193       0.00000           0.292129            7.94924
    194       0.00000           0.302675            8.23622
    195       0.00000           0.303899            8.26951
    196       0.00000           0.307830            8.37647
    197       0.00000           0.309742            8.42851
    198       0.00000           0.313126            8.52059
    199       0.00000           0.319330            8.68941
    200       0.00000           0.322942            8.78770
    201       0.00000           0.327877            8.92199
    202       0.00000           0.331091            9.00943
    203       0.00000           0.335950            9.14166
    204       0.00000           0.341509            9.29294

  Highest occupied state (VBM) at     -5.82601777 eV
  | Occupation number:      2.00000000

  Lowest unoccupied state (CBM) at    -4.50710682 eV
  | Occupation number:      0.00000000

  Overall HOMO-LUMO gap:      1.31891094 eV.

  Total energy components:
  | Sum of eigenvalues            :        -623.33637475 Ha      -16961.84576620 eV
  | XC energy correction          :        -156.69871536 Ha       -4263.98899442 eV
  | XC potential correction       :         201.30185784 Ha        5477.70225424 eV
  | Free-atom electrostatic energy:        -469.47100134 Ha      -12774.95592897 eV
  | Hartree energy correction     :         -29.52596297 Ha        -803.44233111 eV
  | Entropy correction            :           0.00000000 Ha           0.00000000 eV
  | ---------------------------
  | Total energy                  :       -1077.73019658 Ha      -29326.53076646 eV
  | Total energy, T -> 0          :       -1077.73019658 Ha      -29326.53076646 eV  <-- do not rely on this value for anything but (periodic) metals
  | Electronic free energy        :       -1077.73019658 Ha      -29326.53076646 eV

  Derived energy quantities:
  | Kinetic energy                :        1077.40767508 Ha       29317.75450990 eV
  | Electrostatic energy          :       -1998.43915630 Ha      -54380.29628194 eV
  | Energy correction for multipole
  | error in Hartree potential    :          -0.06539181 Ha          -1.77940165 eV
  | Sum of eigenvalues per atom                           :        -368.73577753 eV
  | Total energy (T->0) per atom                          :        -637.53327753 eV  <-- do not rely on this value for anything but (periodic) metals
  | Electronic free energy per atom                       :        -637.53327753 eV

  Self-consistency convergence accuracy:
  | Change of charge density      :  0.1058E+01
  | Change of sum of eigenvalues  :  0.8137E+03 eV
  | Change of total energy        :  0.2669E+02 eV

  End self-consistency iteration #     1       :  max(cpu_time)    wall_clock(cpu1)
  | Time for this iteration                    :        4.229 s           4.457 s
  | Charge density update                      :        1.049 s           1.089 s
  | Density mixing                             :        0.003 s           0.005 s
  | Hartree multipole update                   :        0.010 s           0.010 s
  | Hartree multipole summation                :        0.668 s           0.849 s
  | Integration                                :        2.359 s           2.360 s
  | Solution of K.-S. eqns.                    :        0.130 s           0.130 s
  | Total energy evaluation                    :        0.000 s           0.000 s

  Partial memory accounting:
[...]
     34       2.00000          -0.737976          -20.08136
     35       2.00000          -0.711786          -19.36869
     36       2.00000          -0.695325          -18.92076
     37       2.00000          -0.685161          -18.64418
     38       2.00000          -0.683769          -18.60630
     39       2.00000          -0.674655          -18.35830
     40       2.00000          -0.672045          -18.28728
     41       2.00000          -0.648331          -17.64198
     42       2.00000          -0.630308          -17.15154
     43       2.00000          -0.596894          -16.24232
     44       2.00000          -0.576901          -15.69826
     45       2.00000          -0.568634          -15.47332
     46       2.00000          -0.564194          -15.35250
     47       2.00000          -0.546088          -14.85982
     48       2.00000          -0.543978          -14.80240
     49       2.00000          -0.526473          -14.32606
     50       2.00000          -0.523625          -14.24856
     51       2.00000          -0.491818          -13.38304
     52       2.00000          -0.486428          -13.23639
     53       2.00000          -0.474907          -12.92287
     54       2.00000          -0.468832          -12.75757
     55       2.00000          -0.455485          -12.39438
     56       2.00000          -0.453856          -12.35004
     57       2.00000          -0.437927          -11.91661
     58       2.00000          -0.423739          -11.53052
     59       2.00000          -0.420377          -11.43905
     60       2.00000          -0.415507          -11.30651
     61       2.00000          -0.395803          -10.77034
     62       2.00000          -0.390503          -10.62613
     63       2.00000          -0.388617          -10.57481
     64       2.00000          -0.386442          -10.51562
     65       2.00000          -0.381856          -10.39082
     66       2.00000          -0.379442          -10.32515
     67       2.00000          -0.378845          -10.30889
     68       2.00000          -0.369234          -10.04738
     69       2.00000          -0.364093           -9.90748
     70       2.00000          -0.361230           -9.82956
     71       2.00000          -0.356632           -9.70446
     72       2.00000          -0.352011           -9.57872
     73       2.00000          -0.343142           -9.33738
     74       2.00000          -0.341867           -9.30268
     75       2.00000          -0.336897           -9.16744
     76       2.00000          -0.326133           -8.87454
     77       2.00000          -0.324284           -8.82421
     78       2.00000          -0.317629           -8.64313
     79       2.00000          -0.313983           -8.54392
     80       2.00000          -0.308399           -8.39197
     81       2.00000          -0.298777           -8.13013
     82       2.00000          -0.297181           -8.08671
     83       2.00000          -0.287670           -7.82790
     84       2.00000          -0.286867           -7.80605
     85       2.00000          -0.282438           -7.68552
     86       2.00000          -0.261075           -7.10422
     87       2.00000          -0.250586           -6.81879
     88       2.00000          -0.237726           -6.46886
     89       2.00000          -0.235842           -6.41758
     90       2.00000          -0.230024           -6.25928
     91       2.00000          -0.221365           -6.02366
     92       2.00000          -0.190063           -5.17188
     93       2.00000          -0.176202           -4.79471
     94       0.00000          -0.124154           -3.37839
     95       0.00000          -0.076151           -2.07218
     96       0.00000          -0.054931           -1.49474
     97       0.00000          -0.051802           -1.40959
     98       0.00000          -0.044404           -1.20828
     99       0.00000          -0.032474           -0.88365
    100       0.00000          -0.024753           -0.67355
    101       0.00000          -0.010103           -0.27491
    102       0.00000          -0.008553           -0.23275
    103       0.00000          -0.005530           -0.15047
    104       0.00000           0.000348            0.00946
    105       0.00000           0.004884            0.13289
    106       0.00000           0.009405            0.25591
    107       0.00000           0.015819            0.43047
    108       0.00000           0.020274            0.55167
    109       0.00000           0.028312            0.77042
    110       0.00000           0.033941            0.92358
    111       0.00000           0.039913            1.08609
    112       0.00000           0.046054            1.25320
    113       0.00000           0.048975            1.33267
    114       0.00000           0.051499            1.40137
    115       0.00000           0.062430            1.69882
    116       0.00000           0.068301            1.85858
    117       0.00000           0.071135            1.93567
    118       0.00000           0.078929            2.14777
    119       0.00000           0.081510            2.21800
    120       0.00000           0.084478            2.29877
    121       0.00000           0.093246            2.53736
    122       0.00000           0.095749            2.60546
    123       0.00000           0.101689            2.76710
    124       0.00000           0.106093            2.88694
    125       0.00000           0.107897            2.93602
    126       0.00000           0.113311            3.08334
    127       0.00000           0.114979            3.12873
    128       0.00000           0.118938            3.23647
    129       0.00000           0.128045            3.48429
    130       0.00000           0.130102            3.54025
    131       0.00000           0.136036            3.70173
    132       0.00000           0.136801            3.72253
    133       0.00000           0.140857            3.83292
    134       0.00000           0.143642            3.90871
    135       0.00000           0.146764            3.99364
    136       0.00000           0.148787            4.04869
    137       0.00000           0.150173            4.08642
    138       0.00000           0.156172            4.24965
    139       0.00000           0.156549            4.25991
    140       0.00000           0.158823            4.32178
    141       0.00000           0.161384            4.39147
    142       0.00000           0.166291            4.52500
    143       0.00000           0.171448            4.66535
    144       0.00000           0.172480            4.69343
    145       0.00000           0.176090            4.79167
    146       0.00000           0.178608            4.86016
    147       0.00000           0.182062            4.95416
    148       0.00000           0.183177            4.98451
    149       0.00000           0.188514            5.12973
    150       0.00000           0.190704            5.18931
    151       0.00000           0.191961            5.22353
    152       0.00000           0.193284            5.25952
    153       0.00000           0.198591            5.40393
    154       0.00000           0.200710            5.46160
    155       0.00000           0.208510            5.67386
    156       0.00000           0.210450            5.72665
    157       0.00000           0.211939            5.76716
    158       0.00000           0.213596            5.81223
    159       0.00000           0.216607            5.89417
    160       0.00000           0.220902            6.01105
    161       0.00000           0.223068            6.06999
    162       0.00000           0.225576            6.13825
    163       0.00000           0.227667            6.19513
    164       0.00000           0.232820            6.33536
    165       0.00000           0.233455            6.35264
    166       0.00000           0.234921            6.39252
    167       0.00000           0.239651            6.52124
    168       0.00000           0.242091            6.58763
    169       0.00000           0.244554            6.65466
    170       0.00000           0.245410            6.67795
    171       0.00000           0.254129            6.91521
    172       0.00000           0.257302            7.00156
    173       0.00000           0.259776            7.06886
    174       0.00000           0.261625            7.11918
    175       0.00000           0.264200            7.18926
    176       0.00000           0.270257            7.35407
    177       0.00000           0.274787            7.47734
    178       0.00000           0.275269            7.49045
    179       0.00000           0.277375            7.54776
    180       0.00000           0.281894            7.67073
    181       0.00000           0.283050            7.70218
    182       0.00000           0.286164            7.78693
    183       0.00000           0.293605            7.98939
    184       0.00000           0.293953            7.99887
    185       0.00000           0.296503            8.06826
    186       0.00000           0.302345            8.22723
    187       0.00000           0.304991            8.29921
    188       0.00000           0.305168            8.30403
    189       0.00000           0.306281            8.33432
    190       0.00000           0.312547            8.50484
    191       0.00000           0.314723            8.56404
    192       0.00000           0.317376            8.63624
    193       0.00000           0.320754            8.72817
    194       0.00000           0.332237            9.04064
    195       0.00000           0.333744            9.08164
    196       0.00000           0.335398            9.12666
    197       0.00000           0.342390            9.31690
    198       0.00000           0.345403            9.39890
    199       0.00000           0.349116            9.49994
    200       0.00000           0.355888            9.68419
    201       0.00000           0.360943            9.82177
    202       0.00000           0.364313            9.91347
    203       0.00000           0.368820           10.03609
    204       0.00000           0.372481           10.13571

  Highest occupied state (VBM) at     -4.79470984 eV
  | Occupation number:      2.00000000

  Lowest unoccupied state (CBM) at    -3.37838920 eV
  | Occupation number:      0.00000000

  Overall HOMO-LUMO gap:      1.41632064 eV.

  Total energy components:
  | Sum of eigenvalues            :        -613.29668121 Ha      -16688.65180494 eV
  | XC energy correction          :        -157.61295195 Ha       -4288.86663770 eV
  | XC potential correction       :         202.47091474 Ha        5509.51391097 eV
  | Free-atom electrostatic energy:        -469.47100134 Ha      -12774.95592897 eV
  | Hartree energy correction     :         -39.45083246 Ha       -1073.51177103 eV
  | Entropy correction            :           0.00000000 Ha           0.00000000 eV
  | ---------------------------
  | Total energy                  :       -1077.36055222 Ha      -29316.47223166 eV
  | Total energy, T -> 0          :       -1077.36055222 Ha      -29316.47223166 eV  <-- do not rely on this value for anything but (periodic) metals
  | Electronic free energy        :       -1077.36055222 Ha      -29316.47223166 eV

  Derived energy quantities:
  | Kinetic energy                :        1074.45395437 Ha       29237.37967984 eV
  | Electrostatic energy          :       -1994.20155464 Ha      -54264.98527380 eV
  | Energy correction for multipole
  | error in Hartree potential    :          -0.12117189 Ha          -3.29725490 eV
  | Sum of eigenvalues per atom                           :        -362.79677837 eV
  | Total energy (T->0) per atom                          :        -637.31461373 eV  <-- do not rely on this value for anything but (periodic) metals
  | Electronic free energy per atom                       :        -637.31461373 eV
  End evaluation of scaled ZORA corrections.
  | Time for scaled ZORA corrections           :        3.844 s           3.845 s
------------------------------------------------------------

  Energy and forces in a compact form:
  | Total energy uncorrected      :         -0.293164722316617E+05 eV
  | Total energy corrected        :         -0.293164722316617E+05 eV  <-- do not rely on this value for anything but (periodic) metals
  | Electronic free energy        :         -0.293164722316617E+05 eV

  ------------------------------------ 
  Start decomposition of the XC Energy 
  ------------------------------------ 
  X and C from original XC functional choice 
  Hartree-Fock Energy :          0.000000000 Ha              0.000000000 eV
  X Energy            :       -151.396142471 Ha          -4119.698644608 eV
  C Energy            :         -6.216809479 Ha           -169.167993091 eV
  Total XC Energy     :       -157.612951950 Ha          -4288.866637699 eV
  ------------------------------------ 
  LDA X and C from self-consistent density 
  X Energy LDA        :       -137.099145432 Ha          -3730.657560963 eV
  C Energy LDA        :        -11.990689529 Ha           -326.283263197 eV
  ------------------------------------ 
  End decomposition of the XC Energy 
  ------------------------------------ 

------------------------------------------------------------

------------------------------------------------------------------------------
  Final output of selected total energy values:

  The following output summarizes some interesting total energy values
  at the end of a run (AFTER all relaxation, molecular dynamics, etc.).

  | Total energy of the DFT / Hartree-Fock s.c.f. calculation      :         -29316.472231662 eV
  | Final zero-broadening corrected energy (caution - metals only) :         -29316.472231662 eV
  | For reference only, the value of 1 Hartree used in FHI-aims is :             27.211384500 eV

  Before relying on these values, please be sure to understand exactly which
  total energy value is referred to by a given number. Different objects may
  all carry the same name 'total energy'. Definitions:

  Total energy of the DFT / Hartree-Fock s.c.f. calculation:
  | Note that this energy does not include ANY quantities calculated after the
  | s.c.f. cycle, in particular not ANY RPA, MP2, etc. many-body perturbation terms.
  | Scalar relativistic effects have been included in the 'scaled ZORA' approximation.

  Final zero-broadening corrected energy:
  | For metallic systems only, a broadening of the occupation numbers at the Fermi
  | level can be extrapolated back to zero broadening by an electron-gas inspired
  | formula. For all systems that are not real metals, this value can be
  | meaningless and should be avoided.

------------------------------------------------------------------------------
  Methods described in the following list of references were used in this FHI-aims run.
  If you publish the results, please make sure to cite these reference if they apply.
  FHI-aims is an academic code, and for our developers (often, Ph.D. students
  and postdocs), scientific credit in the community is essential.
  Thank you for helping us!

  For any use of FHI-aims, please cite:

    Volker Blum, Ralf Gehrke, Felix Hanke, Paula Havu, Ville Havu,
    Xinguo Ren, Karsten Reuter, and Matthias Scheffler
    'Ab initio molecular simulations with numeric atom-centered orbitals'
    Computer Physics Communications 180, 2175-2196 (2009)
    http://dx.doi.org/10.1016/j.cpc.2009.06.022


  The scalable eigensolver library ELPA was used in your run.
  ELPA is essential especially for large systems on hundreds or thousands of CPUs.
  For ELPA, please cite:

    Andreas Marek, Volker Blum, Rainer Johanni, Ville Havu, Bruno Lang,
    Thomas Auckenthaler, Alexander Heinecke, Hans-Joachim Bungartz, and Hermann Lederer,
    'The ELPA Library - Scalable Parallel Eigenvalue Solutions
    for Electronic Structure Theory and Computational Science'
    The Journal of Physics: Condensed Matter 26, 213201 (2014).
    http://dx.doi.org/10.1088/0953-8984/26/21/213201


  The ELSI infrastructure was used in your run to solve the Kohn-Sham electronic structure.
  Please check out http://elsi-interchange.org to learn more.
  If scalability is important for your project, please acknowledge ELSI by citing:

    V. W-z. Yu, F. Corsetti, A. Garcia, W. P. Huhn, M. Jacquelin, W. Jia,
    B. Lange, L. Lin, J. Lu, W. Mi, A. Seifitokaldani, A. Vazquez-Mayagoitia,
    C. Yang, H. Yang, and V. Blum
    'ELSI: A unified software interface for Kohn-Sham electronic structure solvers'
    Computer Physics Communications 222, 267-285 (2018).
    http://dx.doi.org/10.1016/j.cpc.2017.09.007


  For the real-space grid partitioning and parallelization used in this calculation, please cite:

    Ville Havu, Volker Blum, Paula Havu, and Matthias Scheffler,
    'Efficient O(N) integration for all-electron electronic structure calculation'
    'using numerically tabulated basis functions'
    Journal of Computational Physics 228, 8367-8379 (2009).
    http://dx.doi.org/10.1016/j.jcp.2009.08.008

  Of course, there are many other important community references, e.g., those cited in the
  above references. Our list is limited to references that describe implementations in the
  FHI-aims code. The reason is purely practical (length of this list) - please credit others as well.

------------------------------------------------------------
          Leaving FHI-aims.
          Date     :  20210620, Time     :  160741.088

          Computational steps:
          | Number of self-consistency cycles          :           18
          | Number of SCF (re)initializations          :            1

          Detailed time accounting                     :  max(cpu_time)    wall_clock(cpu1)
          | Total time                                 :       79.234 s          81.202 s
          | Preparation time                           :        0.209 s           0.254 s
          | Boundary condition initalization           :        0.001 s           0.003 s
          | Grid partitioning                          :        0.778 s           0.797 s
          | Preloading free-atom quantities on grid    :        0.028 s           0.284 s
          | Free-atom superposition energy             :        0.078 s           0.079 s
          | Total time for integrations                :       43.756 s          43.801 s
          | Total time for solution of K.-S. equations :        2.442 s           2.476 s
          | Total time for density update              :       17.521 s          17.510 s
          | Total time for mixing                      :        0.133 s           0.137 s
          | Total time for Hartree multipole update    :        0.160 s           0.166 s
          | Total time for Hartree multipole sum       :        9.508 s           9.694 s
          | Total time for total energy evaluation     :        0.008 s           0.032 s
          | Total time for scaled ZORA corrections     :        3.844 s           3.845 s

          Partial memory accounting:
          | Residual value for overall tracked memory usage across tasks :     0.000000 MB (should be 0.000000 MB)
          | Peak values for overall tracked memory usage (after allocating zora_vector2):
          |   Minimum:       19.535 MB (on task 49)
          |   Maximum:       23.811 MB (on task 39)
          |   Average:       22.039 MB
          | Largest tracked array allocation (hamiltonian_shell):
          |   Minimum:        4.609 MB (on task  1)
          |   Maximum:        4.609 MB (on task  1)
          |   Average:        4.609 MB
          Note:  These values currently only include a subset of arrays which are explicitly tracked.
          The "true" memory usage will be greater.

          Have a nice day.
------------------------------------------------------------
