  MPI-parallelism will be employed.
------------------------------------------------------------
          Invoking FHI-aims ...
          Version 180607
          Git rev. (modified): 6724847 Fix JSON memory corruption in scf_solver
          Compiled on 2018/06/27 at 16:00:31 on host coe.psc.edu.

          When using FHI-aims, please cite the following reference:

          Volker Blum, Ralf Gehrke, Felix Hanke, Paula Havu,
          Ville Havu, Xinguo Ren, Karsten Reuter, and Matthias Scheffler,
          'Ab Initio Molecular Simulations with Numeric Atom-Centered Orbitals',
          Computer Physics Communications 180, 2175-2196 (2009)

          For any questions about FHI-aims, please visit the aimsclub website
          with its forums and wiki. Contributions to both the forums and the
          wiki are warmly encouraged - they are for you, and everyone is welcome there.

------------------------------------------------------------



  Date     :  20210727, Time     :  232003.396
  Time zero on CPU 1             :   0.378124000000000E+00  s.
  Internal wall clock time zero  :           396660003.396  s.

  FHI-aims created a unique identifier for this run for later identification
  aims_uuid : AD05E328-DD5C-441B-A0F8-3CB58B159896

  Using       56 parallel tasks.
  Task        0 on host d032 reporting.
  Task        1 on host d032 reporting.
  Task        2 on host d032 reporting.
  Task        3 on host d032 reporting.
  Task        4 on host d032 reporting.
  Task        5 on host d032 reporting.
  Task        6 on host d032 reporting.
  Task        7 on host d032 reporting.
  Task        8 on host d032 reporting.
  Task        9 on host d032 reporting.
  Task       10 on host d032 reporting.
  Task       11 on host d032 reporting.
  Task       12 on host d032 reporting.
  Task       13 on host d032 reporting.
  Task       14 on host d032 reporting.
  Task       15 on host d032 reporting.
  Task       16 on host d032 reporting.
  Task       17 on host d032 reporting.
  Task       18 on host d032 reporting.
  Task       19 on host d032 reporting.
  Task       20 on host d032 reporting.
  Task       21 on host d032 reporting.
  Task       22 on host d032 reporting.
  Task       23 on host d032 reporting.
  Task       24 on host d032 reporting.
  Task       25 on host d032 reporting.
  Task       26 on host d032 reporting.
  Task       27 on host d032 reporting.
  Task       28 on host d032 reporting.
  Task       29 on host d032 reporting.
  Task       30 on host d032 reporting.
  Task       31 on host d032 reporting.
  Task       32 on host d032 reporting.
  Task       33 on host d032 reporting.
  Task       34 on host d032 reporting.
  Task       35 on host d032 reporting.
  Task       36 on host d032 reporting.
  Task       37 on host d032 reporting.
  Task       38 on host d032 reporting.
  Task       39 on host d032 reporting.
  Task       40 on host d032 reporting.
  Task       41 on host d032 reporting.
  Task       42 on host d032 reporting.
  Task       43 on host d032 reporting.
  Task       44 on host d032 reporting.
  Task       45 on host d032 reporting.
  Task       46 on host d032 reporting.
  Task       47 on host d032 reporting.
  Task       48 on host d032 reporting.
  Task       49 on host d032 reporting.
  Task       50 on host d032 reporting.
  Task       51 on host d032 reporting.
  Task       52 on host d032 reporting.
  Task       53 on host d032 reporting.
  Task       54 on host d032 reporting.
  Task       55 on host d032 reporting.

  Performing system and environment tests:
  *** Environment variable OMP_NUM_THREADS is not set
  *** For performance reasons you might want to set it to 1
  | Stacksize not measured: no C compiler
  | Checking for scalapack...
  | Testing pdtran()...
  | All pdtran() tests passed.

  Obtaining array dimensions for all initial allocations:
  
  -----------------------------------------------------------------------
  Parsing control.in (first pass over file, find array dimensions only).
  The contents of control.in will be repeated verbatim below
  unless switched off by setting 'verbatim_writeout .false.' .
  in the first line of control.in .
  -----------------------------------------------------------------------
  
  #===============================================================================
  # FHI-aims file: ./Runs/es/control.in
  # Created using the Atomic Simulation Environment (ASE)
  # Mon Jan 13 16:04:38 2020
  #===============================================================================
  xc                                 pbe
  relativistic                       zora scalar 1e-12
  occupation_type                    gaussian 0.0001
  load_balancing                     .true.
  KS_method                          scalapack_fast
  mixer                              pulay
  n_max_pulay                        5
  charge_mix_param                   0.4
  sc_accuracy_etot                   1e-6
  sc_accuracy_eev                    1e-4
  sc_accuracy_rho                    1e-6
  sc_iter_limit                      100
  prodbas_threshold                  1e-4
  basis_threshold                    1e-5
  override_illconditioning           .true.
  use_logsbt                         .true.
  spin                               none
  charge                             0
  #===============================================================================
  
  ################################################################################
  #
  #  FHI-aims code project
  # Volker Blum, Fritz Haber Institute Berlin, 2009
  #
  #  Suggested "tight" defaults for H atom (to be pasted into control.in file)
  #
  ################################################################################
    species        H
  #     global species definitions
      nucleus             1
      mass                1.00794
  #
      l_hartree           6
  #
      cut_pot             4.0  2.0  1.0
      basis_dep_cutoff    1e-4
  #
      radial_base         24 7.0
      radial_multiplier   2
      angular_grids       specified
        division   0.1930   50
        division   0.3175  110
        division   0.4293  194
        division   0.5066  302
        division   0.5626  434
  #      division   0.5922  590
  #      division   0.6227  974
  #      division   0.6868 1202
  #      outer_grid  770
        outer_grid  434
  ################################################################################
  #
  #  Definition of "minimal" basis
  #
  ################################################################################
  #     valence basis states
      valence      1  s   1.
  #     ion occupancy
      ion_occ      1  s   0.5
  ################################################################################
  #
  #  Suggested additional basis functions. For production calculations,
  #  uncomment them one after another (the most important basis functions are
  #  listed first).
  #
  #  Basis constructed for dimers: 0.5 A, 0.7 A, 1.0 A, 1.5 A, 2.5 A
  #
  ################################################################################
  #  "First tier" - improvements: -1014.90 meV to -62.69 meV
       hydro 2 s 2.1
       hydro 2 p 3.5
  #  "Second tier" - improvements: -12.89 meV to -1.83 meV
       hydro 1 s 0.85
       hydro 2 p 3.7
       hydro 2 s 1.2
       hydro 3 d 7
  #  "Third tier" - improvements: -0.25 meV to -0.12 meV
  #     hydro 4 f 11.2
  #     hydro 3 p 4.8
  #     hydro 4 d 9
  #     hydro 3 s 3.2
  ################################################################################
  #
  # For methods that use the localized form of the "resolution of identity" for
  # the two-electron Coulomb operator (RI_method LVL), particularly Hartree-Fock and
  # hybrid density functional calculations, the highest accuracy can be obtained by
  # uncommenting the line beginning with "for_aux"  below, thus adding an extra g radial
  # function to the construction of the product basis set for the expansion.
  # See Ref. New J. Phys. 17, 093020 (2015) for more information, particularly Figs. 1 and 6.
  #
  ################################################################################
  #
  # for_aux hydro 5 g 6.0
  ################################################################################
  #
  #  FHI-aims code project
  # Volker Blum, Fritz Haber Institute Berlin, 2009
  #
  #  Suggested "tight" defaults for C atom (to be pasted into control.in file)
  #
  ################################################################################
    species        C
  #     global species definitions
      nucleus             6
      mass                12.0107
  #
      l_hartree           6
  #
      cut_pot             4.0  2.0  1.0
      basis_dep_cutoff    1e-4
  #
      radial_base         34 7.0
      radial_multiplier   2
      angular_grids specified
        division   0.2187   50
        division   0.4416  110
        division   0.6335  194
        division   0.7727  302
        division   0.8772  434
  #      division   0.9334  590
  #      division   0.9924  770
  #      division   1.0230  974
  #      division   1.5020 1202
  #     outer_grid  974
        outer_grid  434
  ################################################################################
  #
  #  Definition of "minimal" basis
  #
  ################################################################################
  #     valence basis states
      valence      2  s   2.
      valence      2  p   2.
  #     ion occupancy
      ion_occ      2  s   1.
      ion_occ      2  p   1.
  ################################################################################
  #
  #  Suggested additional basis functions. For production calculations,
  #  uncomment them one after another (the most important basis functions are
  #  listed first).
  #
  #  Constructed for dimers: 1.0 A, 1.25 A, 1.5 A, 2.0 A, 3.0 A
  #
  ################################################################################
  #  "First tier" - improvements: -1214.57 meV to -155.61 meV
       hydro 2 p 1.7
       hydro 3 d 6
       hydro 2 s 4.9
  #  "Second tier" - improvements: -67.75 meV to -5.23 meV
       hydro 4 f 9.8
       hydro 3 p 5.2
       hydro 3 s 4.3
       hydro 5 g 14.4
       hydro 3 d 6.2
  #  "Third tier" - improvements: -2.43 meV to -0.60 meV
  #     hydro 2 p 5.6
  #     hydro 2 s 1.4
  #     hydro 3 d 4.9
  #     hydro 4 f 11.2
  #  "Fourth tier" - improvements: -0.39 meV to -0.18 meV
  #     hydro 2 p 2.1
  #     hydro 5 g 16.4
  #     hydro 4 d 13.2
  #     hydro 3 s 13.6
  #     hydro 4 f 17.6
  #  Further basis functions - improvements: -0.08 meV and below
  #     hydro 3 s 2
  #     hydro 3 p 6
  #     hydro 4 d 20
  ################################################################################
  #
  # For methods that use the localized form of the "resolution of identity" for
  # the two-electron Coulomb operator (RI_method LVL), particularly Hartree-Fock and
  # hybrid density functional calculations, the highest accuracy can be obtained by
  # uncommenting the line beginning with "for_aux"  below, thus adding an extra g radial
  # function to the construction of the product basis set for the expansion.
  # See Ref. New J. Phys. 17, 093020 (2015) for more information, particularly Figs. 1 and 6.
  #
  ################################################################################
  #
  # for_aux hydro 5 g 6.0
  
  -----------------------------------------------------------------------
  Completed first pass over input file control.in .
  -----------------------------------------------------------------------
  
  
  -----------------------------------------------------------------------
  Parsing geometry.in (first pass over file, find array dimensions only).
  The contents of geometry.in will be repeated verbatim below
  unless switched off by setting 'verbatim_writeout .false.' .
  in the first line of geometry.in .
  -----------------------------------------------------------------------
  
  #=======================================================
  # FHI-aims file: geometry.in
  # Created using the Atomic Simulation Environment (ASE)
  # Mon Jul 26 17:53:15 2021
  #=======================================================
  atom 33.0619919999999965 73.7604840000000053 18.5417960000000015 H
  atom 33.7439770000000010 73.2493529999999993 17.8602279999999993 C
  atom 33.8180389999999989 71.9047359999999998 17.8748809999999985 C
  atom 34.5446370000000016 74.0613409999999988 16.9827629999999985 C
  atom 33.0572689999999980 71.0918379999999956 18.8772869999999990 C
  atom 34.6668930000000017 71.2089200000000062 16.9200540000000004 C
  atom 34.4453880000000012 75.4475130000000007 16.9891170000000002 C
  atom 35.4802150000000012 73.4225490000000036 16.1024379999999994 C
  atom 31.7487940000000002 70.6929719999999975 18.6555840000000011 C
  atom 33.6767219999999980 70.7008589999999941 20.0553269999999983 C
  atom 34.6764229999999998 69.8018179999999973 16.8469149999999992 C
  atom 35.4943730000000031 71.9566039999999987 16.0430940000000000 C
  atom 33.7032510000000016 75.9171539999999965 17.6380610000000004 H
  atom 35.2587090000000032 76.2601080000000024 16.1861099999999993 C
  atom 36.3108259999999987 74.2175510000000003 15.3269430000000000 C
  atom 31.0781509999999983 69.9010040000000004 19.5809870000000004 C
  atom 31.2392849999999989 71.0113130000000012 17.7463900000000017 H
  atom 33.0107080000000011 69.9107099999999946 20.9868360000000003 C
  atom 34.7050210000000021 71.0106899999999968 20.2480359999999990 H
  atom 34.0328459999999993 69.2347010000000012 17.5155540000000016 H
  atom 35.4772189999999981 69.1445240000000041 15.9456120000000006 C
  atom 36.2981649999999973 71.2462280000000021 15.1279219999999999 C
  atom 35.1800179999999969 77.6763090000000034 16.1768849999999986 C
  atom 36.2292759999999987 75.6173730000000006 15.3515770000000007 C
  atom 37.0533950000000019 73.7716060000000056 14.6650060000000000 H
  atom 30.0447820000000014 69.6109589999999940 19.3942620000000012 H
  atom 31.7178900000000006 69.5069909999999993 20.7403750000000002 C
  atom 33.5162290000000027 69.6236049999999977 21.9076500000000003 H
  atom 35.4623640000000009 68.0562340000000034 15.9036510000000000 H
  atom 36.2895869999999974 69.8703689999999966 15.0826410000000006 C
  atom 36.9336550000000017 71.7858949999999965 14.4280130000000000 H
  atom 34.4265329999999992 78.1626679999999965 16.7960920000000016 H
  atom 36.0198869999999971 78.4212629999999962 15.4012989999999999 C
  atom 37.0886139999999997 76.4323940000000022 14.5665739999999992 C
  atom 31.2032209999999992 68.8733720000000034 21.4622129999999984 H
  atom 36.9103149999999971 69.3575270000000046 14.3496710000000007 H
  atom 35.9340359999999990 79.5073299999999961 15.4003200000000007 H
  atom 36.9839190000000002 77.7912670000000048 14.5799020000000006 C
  atom 37.8296380000000028 75.9427309999999949 13.9391870000000004 H
  atom 37.6452389999999966 78.3935740000000010 13.9570410000000003 H
  
  -----------------------------------------------------------------------
  Completed first pass over input file geometry.in .
  -----------------------------------------------------------------------
  

  Basic array size parameters:
  | Number of species                 :        2
  | Number of atoms                   :       40
  | Max. basis fn. angular momentum   :        4
  | Max. atomic/ionic basis occupied n:        2
  | Max. number of basis fn. types    :        2
  | Max. radial fns per species/type  :        8
  | Max. logarithmic grid size        :     1277
  | Max. radial integration grid size :       69
  | Max. angular integration grid size:      434
  | Max. angular grid division number :        8
  | Radial grid for Hartree potential :     1277
  | Number of spin channels           :        1

------------------------------------------------------------
          Reading file control.in.
------------------------------------------------------------
  XC: Using PBE gradient-corrected functionals.
  Scalar relativistic treatment of kinetic energy: ZORA.
  Threshold value for ZORA:   0.100000E-11
  Occupation type: Gaussian broadening, width =   0.100000E-03 eV.
  Since 'load_balancing .true.' is present in control.in, automatically turning on 'use_local_index .true.'.
  Using load balancing for integrations.
  Kohn-Sham electronic structure solved by the ELSI library.
  Using pulay charge density mixing.
  Pulay mixing - number of memorized iterations:    5
  Charge density mixing - mixing parameter:     0.4000
  Convergence accuracy of total energy:  0.1000E-05
  Convergence accuracy of sum of eigenvalues:  0.1000E-03
  Convergence accuracy of self-consistent charge density:  0.1000E-05
  Maximum number of s.-c. iterations  :   100
  * Ignoring prodbas_threshold
  Threshold for basis singularities:  0.1000E-04
  override_illconditioning: Explicitly overriding any built-in checks for an ill-conditioned overlap matrix.
  *** WARNING: If you use this flag, you should really know what you are doing.
  *** DO NOT keep this flag set by default in all your control.in files.
  Using 1D integrations for auxiliary 2-center integrals.
  Spin treatment: No spin polarisation.
  Charge =   0.000000E+00: Neutral system requested explicitly.
 
  Reading configuration options for species H                   .
  | Found nuclear charge :   1.0000
  | Found atomic mass :    1.00794000000000      amu
  | Found l_max for Hartree potential  :   6
  | Found cutoff potl. onset [A], width [A], scale factor :    4.00000    2.00000    1.00000
  | Threshold for basis-dependent cutoff potential is   0.100000E-03
  | Found data for basic radial integration grid :    24 points, outermost radius =    7.000 A
  | Found multiplier for basic radial grid :   2
  | Found angular grid specification: user-specified.
  | Specified grid contains     6 separate shells.
  | Check grid settings after all constraints further below.
  | Found free-atom valence shell :  1 s   1.000
  | No ionic wave fns used. Skipping ion_occ.
  | Found hydrogenic basis function :  2 s   2.100
  | Found hydrogenic basis function :  2 p   3.500
  | Found hydrogenic basis function :  1 s   0.850
  | Found hydrogenic basis function :  2 p   3.700
  | Found hydrogenic basis function :  2 s   1.200
  | Found hydrogenic basis function :  3 d   7.000
  Species H                   : Missing cutoff potential type.
  Defaulting to exp(1/x)/(1-x)^2 type cutoff potential.
  Species H : No 'logarithmic' tag. Using default grid for free atom:
  | Default logarithmic grid data [bohr] : 0.1000E-03 0.1000E+03 0.1012E+01
  Species H : On-site basis accuracy parameter (for Gram-Schmidt orthonormalisation) not specified.
  Using default value basis_acc =  0.1000000E-03.
  Species H                   : Using default innermost maximum threshold i_radial=  2 for radial functions.
  Species H                   : Default cutoff onset for free atom density etc. : 0.40000000E+01 AA.
  Species H                   : Basic radial grid will be enhanced according to radial_multiplier =   2, to contain    49 grid points.
 
  Reading configuration options for species C                   .
  | Found nuclear charge :   6.0000
  | Found atomic mass :    12.0107000000000      amu
  | Found l_max for Hartree potential  :   6
  | Found cutoff potl. onset [A], width [A], scale factor :    4.00000    2.00000    1.00000
  | Threshold for basis-dependent cutoff potential is   0.100000E-03
  | Found data for basic radial integration grid :    34 points, outermost radius =    7.000 A
  | Found multiplier for basic radial grid :   2
  | Found angular grid specification: user-specified.
  | Specified grid contains     6 separate shells.
  | Check grid settings after all constraints further below.
  | Found free-atom valence shell :  2 s   2.000
  | Found free-atom valence shell :  2 p   2.000
  | No ionic wave fns used. Skipping ion_occ.
  | No ionic wave fns used. Skipping ion_occ.
  | Found hydrogenic basis function :  2 p   1.700
  | Found hydrogenic basis function :  3 d   6.000
  | Found hydrogenic basis function :  2 s   4.900
  | Found hydrogenic basis function :  4 f   9.800
  | Found hydrogenic basis function :  3 p   5.200
  | Found hydrogenic basis function :  3 s   4.300
  | Found hydrogenic basis function :  5 g  14.400
  | Found hydrogenic basis function :  3 d   6.200
  Species C                   : Missing cutoff potential type.
  Defaulting to exp(1/x)/(1-x)^2 type cutoff potential.
  Species C : No 'logarithmic' tag. Using default grid for free atom:
  | Default logarithmic grid data [bohr] : 0.1000E-03 0.1000E+03 0.1012E+01
  Species C : On-site basis accuracy parameter (for Gram-Schmidt orthonormalisation) not specified.
  Using default value basis_acc =  0.1000000E-03.
  Species C                   : Using default innermost maximum threshold i_radial=  2 for radial functions.
  Species C                   : Default cutoff onset for free atom density etc. : 0.40000000E+01 AA.
  Species C                   : Basic radial grid will be enhanced according to radial_multiplier =   2, to contain    69 grid points.
 
  Finished reading input file 'control.in'. Consistency checks are next.
 
  MPI_IN_PLACE appears to work with this MPI implementation.
  | Keeping use_mpi_in_place .true. (see manual).
  Target number of points in a grid batch is not set. Defaulting to  100
  Method for grid partitioning is not set. Defaulting to parallel hash+maxmin partitioning.
  Batch size limit is not set. Defaulting to    200
  By default, will store active basis functions for each batch.
  If in need of memory, prune_basis_once .false. can be used to disable this option.
  communication_type for Hartree potential was not specified.
  Defaulting to calc_hartree .
  Pulay mixer: Number of initial linear mixing iterations not set.
  Defaulting to    0 iterations.
  Work space size for distributed Hartree potential not set.
  Defaulting to   0.200000E+03 MB.
  Algorithm-dependent basis array size parameters:
  | n_max_pulay                         :        5
  Presetting      1001 iterations before the initial mixing cycle
  is restarted anyway using the sc_init_iter criterion / keyword.
  Presetting a factor      1.000 between actual scf density residual
  and density convergence criterion sc_accuracy_rho below which sc_init_iter
  takes no effect.
  Calculation of forces was not defined in control.in. No forces will be calculated.
  Geometry relaxation not requested: no relaxation will be performed.
  No accuracy limit for integral partition fn. given. Defaulting to  0.1000E-14.
  No threshold value for u(r) in integrations given. Defaulting to  0.1000E-05.
  No accuracy for occupation numbers given. Defaulting to  0.1000E-12.
  No threshold value for occupation numbers given. Defaulting to  0.0000E+00.
  No accuracy for fermi level given. Defaulting to  0.1000E-19.
  Maximum # of iterations to find E_F not set. Defaulting to  200.
  Will not use alltoall communication since running on < 1024 CPUs.
  partition_type (choice of integration weights) for integrals was not specified.
  | Using a version of the partition function of Stratmann and coworkers ('stratmann_sparse').
  | At each grid point, the set of atoms used to build the partition table is smoothly restricted to
  | only those atoms whose free-atom density would be non-zero at that grid point.
  Partitioning for Hartree potential was not defined. Using partition_type for integrals.
  | Adjusted default value of keyword multip_moments_threshold to:       0.10000000E-11
  | This value may affect high angular momentum components of the Hartree potential in periodic systems.
  No q(lm)/r^(l+1) cutoff set for long-range Hartree potential.
  | Using default value of  0.100000E-09 .
  | Verify using the multipole_threshold keyword.
  Defaulting to new monopole extrapolation.
  Density update method: automatic selection selected.
 * Warning: use_local_index and/or load_balancing needs packed_matrix_format = index
 * Changing the default setting to packed_matrix_format = index
------------------------------------------------------------


------------------------------------------------------------
          Reading geometry description geometry.in.
------------------------------------------------------------
  Input structure read successfully.
  The structure contains       40 atoms,  and a total of        160.000 electrons.

  Input geometry:
  | No unit cell requested.
  | Atomic structure:
  |       Atom                x [A]            y [A]            z [A]
  |    1: Species H            33.06199200       73.76048400       18.54179600
  |    2: Species C            33.74397700       73.24935300       17.86022800
  |    3: Species C            33.81803900       71.90473600       17.87488100
  |    4: Species C            34.54463700       74.06134100       16.98276300
  |    5: Species C            33.05726900       71.09183800       18.87728700
  |    6: Species C            34.66689300       71.20892000       16.92005400
  |    7: Species C            34.44538800       75.44751300       16.98911700
  |    8: Species C            35.48021500       73.42254900       16.10243800
  |    9: Species C            31.74879400       70.69297200       18.65558400
  |   10: Species C            33.67672200       70.70085900       20.05532700
  |   11: Species C            34.67642300       69.80181800       16.84691500
  |   12: Species C            35.49437300       71.95660400       16.04309400
  |   13: Species H            33.70325100       75.91715400       17.63806100
  |   14: Species C            35.25870900       76.26010800       16.18611000
  |   15: Species C            36.31082600       74.21755100       15.32694300
  |   16: Species C            31.07815100       69.90100400       19.58098700
  |   17: Species H            31.23928500       71.01131300       17.74639000
  |   18: Species C            33.01070800       69.91071000       20.98683600
  |   19: Species H            34.70502100       71.01069000       20.24803600
  |   20: Species H            34.03284600       69.23470100       17.51555400
  |   21: Species C            35.47721900       69.14452400       15.94561200
  |   22: Species C            36.29816500       71.24622800       15.12792200
  |   23: Species C            35.18001800       77.67630900       16.17688500
  |   24: Species C            36.22927600       75.61737300       15.35157700
  |   25: Species H            37.05339500       73.77160600       14.66500600
  |   26: Species H            30.04478200       69.61095900       19.39426200
  |   27: Species C            31.71789000       69.50699100       20.74037500
  |   28: Species H            33.51622900       69.62360500       21.90765000
  |   29: Species H            35.46236400       68.05623400       15.90365100
  |   30: Species C            36.28958700       69.87036900       15.08264100
  |   31: Species H            36.93365500       71.78589500       14.42801300
  |   32: Species H            34.42653300       78.16266800       16.79609200
  |   33: Species C            36.01988700       78.42126300       15.40129900
  |   34: Species C            37.08861400       76.43239400       14.56657400
  |   35: Species H            31.20322100       68.87337200       21.46221300
  |   36: Species H            36.91031500       69.35752700       14.34967100
  |   37: Species H            35.93403600       79.50733000       15.40032000
  |   38: Species C            36.98391900       77.79126700       14.57990200
  |   39: Species H            37.82963800       75.94273100       13.93918700
  |   40: Species H            37.64523900       78.39357400       13.95704100
  |

  | The smallest distance between any two atoms is         1.08742856 AA.
  |
  | The first atom of this pair is atom number                     34 .
  | The second atom of this pair is atom number                    39 .

  Number of empty states per atom not set in control.in - providing a guess from actual geometry.
  | Total number of empty states used during s.c.f. cycle:       96
  If you use a very high smearing, use empty_states (per atom!) in control.in to increase this value.

  Structure-dependent array size parameters: 
  | Maximum number of distinct radial functions  :       18
  | Maximum number of basis functions            :     1176
  | Number of Kohn-Sham states (occupied + empty):      176
------------------------------------------------------------

------------------------------------------------------------
          Preparing all fixed parts of the calculation.
------------------------------------------------------------
  Determining machine precision:
    2.225073858507201E-308
  Setting up grids for atomic and cluster calculations.

  Creating wave function, potential, and density for free atoms.

  Species: H

  List of occupied orbitals and eigenvalues:
    n    l              occ      energy [Ha]    energy [eV]
    1    0           1.0000        -0.238386        -6.4868


  Species: C

  List of occupied orbitals and eigenvalues:
    n    l              occ      energy [Ha]    energy [eV]
    1    0           2.0000       -10.049212      -273.4530
    2    0           2.0000        -0.504761       -13.7352
    2    1           2.0000        -0.193631        -5.2690

  Creating fixed part of basis set: Ionic, confined, hydrogenic.
 
  H                    hydrogenic:
 
  List of hydrogenic basis orbitals: 
    n    l      effective z      eigenvalue [eV]  inner max. [A]     outer max. [A]     outer radius [A]   
    2    0         2.100000       -14.9965           0.193243           1.317208           5.373006
    2    1         3.500000       -41.6672           0.602369           0.602369           4.056063
    1    0         0.850000        -9.8292           0.624871           0.624871           5.373006
    2    1         3.700000       -46.5653           0.573622           0.573622           3.910002
    2    0         1.200000        -4.5995           0.334980           2.228188           5.505995
    3    2         7.000000       -74.0753           0.680699           0.680699           3.769201
 
 
  C                    hydrogenic:
 
  List of hydrogenic basis orbitals: 
    n    l      effective z      eigenvalue [eV]  inner max. [A]     outer max. [A]     outer radius [A]   
    2    1         1.700000        -9.8152           1.245706           1.245706           5.401630
    3    2         6.000000       -54.4226           0.792453           0.792453           4.178599
    2    0         4.900000       -81.6681           0.082559           0.562749           3.353238
    4    3         9.800000       -81.6681           0.863254           0.863254           4.028125
    3    1         5.200000       -40.8774           0.305389           1.215618           4.898362
    3    0         4.300000       -27.9508           0.091041           1.610311           5.401630
    5    4        14.400000      -112.8510           0.917666           0.917666           3.883070
    3    2         6.200000       -58.1113           0.763917           0.763917           4.077671
 

  Adding cutoff potential to free-atom effective potential.
  Creating atomic-like basis functions for current effective potential.

  Species H                   :

  List of atomic basis orbitals and eigenvalues:
    n    l      energy [Ha]    energy [eV]    outer radius [A]
    1    0        -0.238386        -6.4868       5.373006


  Species C                   :

  List of atomic basis orbitals and eigenvalues:
    n    l      energy [Ha]    energy [eV]    outer radius [A]
    1    0       -10.049212      -273.4530       1.934409
    2    0        -0.504761       -13.7352       5.271162
    2    1        -0.193631        -5.2690       5.401630

  Assembling full basis from fixed parts.
  | Species H :   atomic orbital   1 s accepted.
  | Species H :    hydro orbital   2 s accepted.
  | Species H :    hydro orbital   1 s accepted.
  | Species H :    hydro orbital   2 s accepted.
  | Species H :    hydro orbital   2 p accepted.
  | Species H :    hydro orbital   2 p accepted.
  | Species H :    hydro orbital   3 d accepted.
  | Species C :   atomic orbital   1 s accepted.
  | Species C :    hydro orbital   2 s accepted.
  | Species C :   atomic orbital   2 s accepted.
  | Species C :    hydro orbital   3 s accepted.
  | Species C :    hydro orbital   3 p accepted.
  | Species C :   atomic orbital   2 p accepted.
  | Species C :    hydro orbital   2 p accepted.
  | Species C :    hydro orbital   3 d accepted.
  | Species C :    hydro orbital   3 d accepted.
  | Species C :    hydro orbital   4 f accepted.
  | Species C :    hydro orbital   5 g accepted.
 
  Basis size parameters after reduction:
  | Total number of radial functions:       18
  | Total number of basis functions :     1176
 
  Per-task memory consumption for arrays in subroutine allocate_ext:
  |           4.441176MB.
  Testing on-site integration grid accuracy.
  |  Species  Function  <phi|h_atom|phi> (log., in eV)  <phi|h_atom|phi> (rad., in eV)
           1        1                 -6.4870767962                 -6.4871688290
           1        2                 13.5032046589                 13.5028982997
           1        3                 32.8195184817                 32.8119941656
           1        4                 33.8513856511                 33.7670005767 ***
           1        5                 28.8544614965                 28.8544615203
           1        6                 59.6326952547                 59.6327656460
           1        7                 60.2719308513                 60.2719305949
           2        8               -273.4529726040               -273.4529710464
           2        9                -10.7721037319                -10.7721022101
           2       10                 17.6044132601                 17.6044162063
           2       11                 53.7706460658                 53.7706913770
           2       12                 15.0973290362                 15.0973256030
           2       13                  3.8545134692                  3.8545724687
           2       14                 12.1156992592                 12.1182024431
           2       15                 29.4352039302                 29.4352041816
           2       16                 54.8741144708                 54.8740268729
           2       17                 59.3556032049                 59.3556031382
           2       18                 93.4551837154                 93.4551838009
 * Note: Onsite integrals marked "***" above are less accurate than
 * onsite_accuracy_threshold =    0.03000 eV. Usually, this is harmless.
 * When in doubt, tighten the "radial" and/or "radial_multiplier" flags to check.

  Preparing densities etc. for the partition functions (integrals / Hartree potential).

  Preparations completed.
  max(cpu_time)          :      0.196 s.
  Wall clock time (cpu1) :      0.211 s.
------------------------------------------------------------

------------------------------------------------------------
          Begin self-consistency loop: Initialization.

          Date     :  20210727, Time     :  232003.848
------------------------------------------------------------

  Initializing index lists of integration centers etc. from given atomic structure:
  | Number of centers in hartree potential         :        40
  | Number of centers in hartree multipole         :        40
  | Number of centers in electron density summation:        40
  | Number of centers in basis integrals           :        40
  | Number of centers in integrals                 :        40
  | Number of centers in hamiltonian               :        40
  * Using 56 tasks for Scalapack Eigenvalue solver.
  Detailed listing of tasks and assigned k-points:
  (for non-periodic systems, the "k-point" denotes an internal label only)
   Task     0 k-point     1 on d032
   Task     1 k-point     1 on d032
   Task     2 k-point     1 on d032
   Task     3 k-point     1 on d032
   Task     4 k-point     1 on d032
   Task     5 k-point     1 on d032
   Task     6 k-point     1 on d032
   Task     7 k-point     1 on d032
   Task     8 k-point     1 on d032
   Task     9 k-point     1 on d032
   Task    10 k-point     1 on d032
   Task    11 k-point     1 on d032
   Task    12 k-point     1 on d032
   Task    13 k-point     1 on d032
   Task    14 k-point     1 on d032
   Task    15 k-point     1 on d032
   Task    16 k-point     1 on d032
   Task    17 k-point     1 on d032
   Task    18 k-point     1 on d032
   Task    19 k-point     1 on d032
   Task    20 k-point     1 on d032
   Task    21 k-point     1 on d032
   Task    22 k-point     1 on d032
   Task    23 k-point     1 on d032
   Task    24 k-point     1 on d032
   Task    25 k-point     1 on d032
   Task    26 k-point     1 on d032
   Task    27 k-point     1 on d032
   Task    28 k-point     1 on d032
   Task    29 k-point     1 on d032
   Task    30 k-point     1 on d032
   Task    31 k-point     1 on d032
   Task    32 k-point     1 on d032
   Task    33 k-point     1 on d032
   Task    34 k-point     1 on d032
   Task    35 k-point     1 on d032
   Task    36 k-point     1 on d032
   Task    37 k-point     1 on d032
   Task    38 k-point     1 on d032
   Task    39 k-point     1 on d032
   Task    40 k-point     1 on d032
   Task    41 k-point     1 on d032
   Task    42 k-point     1 on d032
   Task    43 k-point     1 on d032
   Task    44 k-point     1 on d032
   Task    45 k-point     1 on d032
   Task    46 k-point     1 on d032
   Task    47 k-point     1 on d032
   Task    48 k-point     1 on d032
   Task    49 k-point     1 on d032
   Task    50 k-point     1 on d032
   Task    51 k-point     1 on d032
   Task    52 k-point     1 on d032
   Task    53 k-point     1 on d032
   Task    54 k-point     1 on d032
   Task    55 k-point     1 on d032
  Tasks:    56 split into      8 X      7 BLACS grid
  Calculating block size based on n_basis =         1176 max_nprow =            8 max_npcol =            7
  ScaLAPACK block size set to:           16
  Allocating        0.225 MB for ovlp
  Allocating        0.225 MB for ham
  Allocating        0.225 MB for eigenvec
  Required Scalapack workspace - INTEGER:            1 REAL:             1
  Partitioning the integration grid into batches with parallel hashing+maxmin method.
  | Number of batches:     6019
  | Maximal batch size:     200
  | Minimal batch size:      10
  | Average batch size:     110.495
  | Standard deviation of batch sizes:      30.195

  Integration load balanced across     56 MPI tasks.
  Work distribution over tasks is as follows:
  Task      0 has      11996 integration points.
  Task      1 has      11908 integration points.
  Task      2 has      11771 integration points.
  Task      3 has      12090 integration points.
  Task      4 has      11734 integration points.
  Task      5 has      11887 integration points.
  Task      6 has      11780 integration points.
  Task      7 has      11998 integration points.
  Task      8 has      11879 integration points.
  Task      9 has      11806 integration points.
  Task     10 has      12003 integration points.
  Task     11 has      11764 integration points.
  Task     12 has      11879 integration points.
  Task     13 has      11811 integration points.
  Task     14 has      12032 integration points.
  Task     15 has      11917 integration points.
  Task     16 has      11733 integration points.
  Task     17 has      11926 integration points.
  Task     18 has      11925 integration points.
  Task     19 has      11910 integration points.
  Task     20 has      11742 integration points.
  Task     21 has      11954 integration points.
  Task     22 has      11924 integration points.
  Task     23 has      11776 integration points.
  Task     24 has      12033 integration points.
  Task     25 has      11770 integration points.
  Task     26 has      11863 integration points.
  Task     27 has      11788 integration points.
  Task     28 has      11996 integration points.
  Task     29 has      11956 integration points.
  Task     30 has      11773 integration points.
  Task     31 has      11953 integration points.
  Task     32 has      11840 integration points.
  Task     33 has      11891 integration points.
  Task     34 has      11792 integration points.
  Task     35 has      11962 integration points.
  Task     36 has      11864 integration points.
  Task     37 has      11836 integration points.
  Task     38 has      11958 integration points.
  Task     39 has      11802 integration points.
  Task     40 has      11834 integration points.
  Task     41 has      11815 integration points.
  Task     42 has      11925 integration points.
  Task     43 has      11920 integration points.
  Task     44 has      11911 integration points.
  Task     45 has      11865 integration points.
  Task     46 has      11855 integration points.
  Task     47 has      11851 integration points.
  Task     48 has      11815 integration points.
  Task     49 has      11907 integration points.
  Task     50 has      11889 integration points.
  Task     51 has      11820 integration points.
  Task     52 has      12003 integration points.
  Task     53 has      11760 integration points.
  Task     54 has      11941 integration points.
  Task     55 has      11739 integration points.
  Initializing partition tables, free-atom densities, potentials, etc. across the integration grid (initialize_grid_storage).
  | initialize_grid_storage: Actual outermost partition radius vs. multipole_radius_free
  | (-- VB: in principle, multipole_radius_free should be larger, hence this output)
  | Species        1: Confinement radius =              6.000000000000000 AA, multipole_radius_free =              6.071692442739658 AA.
  | Species        1: outer_partition_radius set to              6.071692442739658 AA .
  | Species        2: Confinement radius =              6.000000000000000 AA, multipole_radius_free =              6.029870734432609 AA.
  | Species        2: outer_partition_radius set to              6.029870734432609 AA .
  | The sparse table of interatomic distances needs     18.8840 kbyte instead of    12.8000 kbyte of memory.
  | Using the partition_type stratmann_smoother will reduce your memory usage.
  | Net number of integration points:   665072
  | of which are non-zero points    :   535220
  Renormalizing the initial density to the exact electron count on the 3D integration grid.
  | Initial density: Formal number of electrons (from input files) :     160.0000000000
  | Integrated number of electrons on 3D grid     :     159.9999149637
  | Charge integration error                      :      -0.0000850363
  | Normalization factor for density and gradient :       1.0000005315
  Obtaining max. number of non-zero basis functions in each batch (get_n_compute_maxes).
  | Maximal number of non-zero basis functions:      838
  Selecting the method for density update.
  Loop over occupied states selected for charge density update.
  Hamiltonian matrix size:
  | Size of matrix non-packed:                692076
  | Size of matrix packed:          617606
  Allocating        1.656 MB for KS_eigenvector
  use_local_index: Max. local matrix size =       548874
  Task:     0 matrix size:     373629
  Task:     1 matrix size:     307531
  Task:     2 matrix size:     425634
  Task:     3 matrix size:     241015
  Task:     4 matrix size:     392820
  Task:     5 matrix size:     308062
  Task:     6 matrix size:     451086
  Task:     7 matrix size:     101475
  Task:     8 matrix size:     253719
  Task:     9 matrix size:     182694
  Task:    10 matrix size:     170108
  Task:    11 matrix size:     261346
  Task:    12 matrix size:     398002
  Task:    13 matrix size:     338781
  Task:    14 matrix size:     179687
  Task:    15 matrix size:     166171
  Task:    16 matrix size:     282258
  Task:    17 matrix size:     112575
  Task:    18 matrix size:      68265
  Task:    19 matrix size:     126756
  Task:    20 matrix size:     170772
  Task:    21 matrix size:     306724
  Task:    22 matrix size:     360631
  Task:    23 matrix size:     425456
  Task:    24 matrix size:     160461
  Task:    25 matrix size:     186942
  Task:    26 matrix size:     271954
  Task:    27 matrix size:     174882
  Task:    28 matrix size:     476748
  Task:    29 matrix size:     384035
  Task:    30 matrix size:     450761
  Task:    31 matrix size:     199117
  Task:    32 matrix size:     231785
  Task:    33 matrix size:      98346
  Task:    34 matrix size:     103740
  Task:    35 matrix size:     263836
  Task:    36 matrix size:     361689
  Task:    37 matrix size:     343483
  Task:    38 matrix size:     131832
  Task:    39 matrix size:     158182
  Task:    40 matrix size:      80601
  Task:    41 matrix size:      91378
  Task:    42 matrix size:     526402
  Task:    43 matrix size:     389452
  Task:    44 matrix size:     210220
  Task:    45 matrix size:     460598
  Task:    46 matrix size:     365461
  Task:    47 matrix size:     389830
  Task:    48 matrix size:     340238
  Task:    49 matrix size:     490878
  Task:    50 matrix size:     503242
  Task:    51 matrix size:     548874
  Task:    52 matrix size:     319995
  Task:    53 matrix size:     300609
  Task:    54 matrix size:     150361
  Task:    55 matrix size:     142835
  Integrating Hamiltonian matrix: batch-based integration.
  Time summed over all CPUs for integration: real work       97.408 s, elapsed      160.012 s
  Time get_set_sparse_local_matrix_scalapack:     0.011428 s
  Start compute_balanced_batch_distribution
  Done load balancing, time needed:      0.007 s
  Integrating overlap matrix with loadbalancing
  Time summed over all CPUs for integration: real work       26.623 s, elapsed       31.487 s
  Time get_set_full_local_matrix_scalapack:     0.012337 s

  Updating Kohn-Sham eigenvalues and eigenvectors using ELSI and the ELPA eigensolver.
  Overlap matrix is not singular
  | Lowest and highest eigenvalues :  0.11E+02,  0.91E-04
  Finished singularity check of overlap matrix
  | Time :     0.065 s
  Finished Cholesky decomposition
  | Time :     0.014 s
  Finished transformation to standard eigenproblem
  | Time :     0.010 s
  Starting ELPA eigensolver
  Finished solving standard eigenproblem
  | Time :     0.062 s
  Finished back-transformation of eigenvectors
  | Time :     0.003 s

  Obtaining occupation numbers and chemical potential using ELSI.
  | Chemical potential (Fermi level):    -8.53891102 eV
  Writing Kohn-Sham eigenvalues.

  State    Occupation    Eigenvalue [Ha]    Eigenvalue [eV]
      1       2.00000         -10.174400         -276.85952
      2       2.00000         -10.173661         -276.83941
      3       2.00000         -10.173051         -276.82280
      4       2.00000         -10.172924         -276.81936
      5       2.00000         -10.172264         -276.80140
      6       2.00000         -10.171700         -276.78603
      7       2.00000         -10.171618         -276.78379
      8       2.00000         -10.171381         -276.77735
      9       2.00000         -10.171267         -276.77425
     10       2.00000         -10.171246         -276.77369
     11       2.00000         -10.171046         -276.76825
     12       2.00000         -10.171033         -276.76790
     13       2.00000         -10.170738         -276.75985
     14       2.00000         -10.170435         -276.75160
     15       2.00000         -10.169738         -276.73265
     16       2.00000         -10.168999         -276.71255
     17       2.00000         -10.166909         -276.65566
     18       2.00000         -10.166609         -276.64750
     19       2.00000         -10.166592         -276.64705
     20       2.00000         -10.165608         -276.62027
     21       2.00000         -10.163456         -276.56171
     22       2.00000         -10.163083         -276.55156
     23       2.00000         -10.162543         -276.53687
     24       2.00000         -10.161294         -276.50288
     25       2.00000          -1.014581          -27.60814
     26       2.00000          -1.002805          -27.28770
     27       2.00000          -0.994937          -27.07361
     28       2.00000          -0.968706          -26.35983
     29       2.00000          -0.942496          -25.64661
     30       2.00000          -0.913798          -24.86571
     31       2.00000          -0.902944          -24.57034
     32       2.00000          -0.887282          -24.14416
     33       2.00000          -0.885567          -24.09751
     34       2.00000          -0.882328          -24.00938
     35       2.00000          -0.861864          -23.45251
     36       2.00000          -0.849049          -23.10379
     37       2.00000          -0.788158          -21.44686
     38       2.00000          -0.775921          -21.11389
     39       2.00000          -0.758101          -20.62898
     40       2.00000          -0.750584          -20.42443
     41       2.00000          -0.746395          -20.31044
     42       2.00000          -0.734693          -19.99200
     43       2.00000          -0.728110          -19.81287
     44       2.00000          -0.693352          -18.86707
     45       2.00000          -0.671283          -18.26653
     46       2.00000          -0.669248          -18.21118
     47       2.00000          -0.650404          -17.69838
     48       2.00000          -0.642635          -17.48698
     49       2.00000          -0.631999          -17.19757
     50       2.00000          -0.630508          -17.15700
     51       2.00000          -0.621547          -16.91316
     52       2.00000          -0.600637          -16.34417
     53       2.00000          -0.592651          -16.12685
     54       2.00000          -0.585453          -15.93098
     55       2.00000          -0.578555          -15.74328
     56       2.00000          -0.574567          -15.63476
     57       2.00000          -0.569947          -15.50905
     58       2.00000          -0.567820          -15.45116
     59       2.00000          -0.564774          -15.36829
     60       2.00000          -0.557200          -15.16217
     61       2.00000          -0.543526          -14.79011
     62       2.00000          -0.531401          -14.46017
     63       2.00000          -0.528884          -14.39166
     64       2.00000          -0.515403          -14.02482
     65       2.00000          -0.510583          -13.89366
     66       2.00000          -0.509238          -13.85708
     67       2.00000          -0.506000          -13.76895
     68       2.00000          -0.499187          -13.58358
     69       2.00000          -0.497375          -13.53427
     70       2.00000          -0.489730          -13.32623
     71       2.00000          -0.477983          -13.00659
     72       2.00000          -0.475995          -12.95248
     73       2.00000          -0.445416          -12.12040
     74       2.00000          -0.432289          -11.76317
     75       2.00000          -0.413760          -11.25899
     76       2.00000          -0.405096          -11.02322
     77       2.00000          -0.403849          -10.98928
     78       2.00000          -0.397938          -10.82844
     79       2.00000          -0.375813          -10.22639
     80       2.00000          -0.355985           -9.68684
     81       0.00000          -0.258406           -7.03157
     82       0.00000          -0.237375           -6.45930
     83       0.00000          -0.213993           -5.82305
     84       0.00000          -0.210927           -5.73962
     85       0.00000          -0.207275           -5.64023
     86       0.00000          -0.194336           -5.28814
     87       0.00000          -0.172050           -4.68173
     88       0.00000          -0.151405           -4.11994
     89       0.00000          -0.105913           -2.88203
     90       0.00000          -0.074354           -2.02328
     91       0.00000          -0.072475           -1.97215
     92       0.00000          -0.066850           -1.81909
     93       0.00000          -0.064035           -1.74249
     94       0.00000          -0.062178           -1.69195
     95       0.00000          -0.051262           -1.39490
     96       0.00000          -0.042507           -1.15667
     97       0.00000          -0.035835           -0.97513
     98       0.00000          -0.035103           -0.95521
     99       0.00000          -0.029660           -0.80709
    100       0.00000          -0.024542           -0.66782
    101       0.00000          -0.015295           -0.41619
    102       0.00000          -0.012266           -0.33376
    103       0.00000          -0.009362           -0.25474
    104       0.00000          -0.007171           -0.19512
    105       0.00000          -0.003422           -0.09311
    106       0.00000          -0.001419           -0.03860
    107       0.00000          -0.000200           -0.00544
    108       0.00000           0.007165            0.19497
    109       0.00000           0.013460            0.36628
    110       0.00000           0.017169            0.46720
    111       0.00000           0.027576            0.75038
    112       0.00000           0.031119            0.84679
    113       0.00000           0.041999            1.14285
    114       0.00000           0.043595            1.18627
    115       0.00000           0.045204            1.23005
    116       0.00000           0.046420            1.26316
    117       0.00000           0.050289            1.36844
    118       0.00000           0.053649            1.45987
    119       0.00000           0.059332            1.61451
    120       0.00000           0.062402            1.69806
    121       0.00000           0.063376            1.72455
    122       0.00000           0.067545            1.83799
    123       0.00000           0.069965            1.90386
    124       0.00000           0.073015            1.98685
    125       0.00000           0.077200            2.10072
    126       0.00000           0.079944            2.17540
    127       0.00000           0.083408            2.26964
    128       0.00000           0.083886            2.28265
    129       0.00000           0.086847            2.36322
    130       0.00000           0.094661            2.57585
    131       0.00000           0.095201            2.59056
    132       0.00000           0.096189            2.61744
    133       0.00000           0.101667            2.76651
    134       0.00000           0.104464            2.84260
    135       0.00000           0.109214            2.97188
    136       0.00000           0.110030            2.99407
    137       0.00000           0.112373            3.05783
    138       0.00000           0.119665            3.25625
    139       0.00000           0.123707            3.36624
    140       0.00000           0.124618            3.39102
    141       0.00000           0.127479            3.46887
    142       0.00000           0.135906            3.69820
    143       0.00000           0.136408            3.71186
    144       0.00000           0.138181            3.76010
    145       0.00000           0.140102            3.81237
    146       0.00000           0.145481            3.95874
    147       0.00000           0.148227            4.03347
    148       0.00000           0.150238            4.08820
    149       0.00000           0.152711            4.15548
    150       0.00000           0.153866            4.18690
    151       0.00000           0.162685            4.42688
    152       0.00000           0.163914            4.46034
    153       0.00000           0.168926            4.59671
    154       0.00000           0.171587            4.66912
    155       0.00000           0.175061            4.76365
    156       0.00000           0.178278            4.85120
    157       0.00000           0.181884            4.94932
    158       0.00000           0.186154            5.06551
    159       0.00000           0.187642            5.10600
    160       0.00000           0.191208            5.20304
    161       0.00000           0.193253            5.25867
    162       0.00000           0.195370            5.31629
    163       0.00000           0.199821            5.43742
    164       0.00000           0.207276            5.64027
    165       0.00000           0.210415            5.72568
    166       0.00000           0.213088            5.79841
    167       0.00000           0.218193            5.93735
    168       0.00000           0.221585            6.02963
    169       0.00000           0.223537            6.08276
    170       0.00000           0.223973            6.09463
    171       0.00000           0.233412            6.35147
    172       0.00000           0.235647            6.41228
    173       0.00000           0.240532            6.54521
    174       0.00000           0.246856            6.71728
    175       0.00000           0.253322            6.89325
    176       0.00000           0.256649            6.98377

  Highest occupied state (VBM) at     -9.68683547 eV
  | Occupation number:      2.00000000

  Lowest unoccupied state (CBM) at    -7.03157304 eV
  | Occupation number:      0.00000000

  Overall HOMO-LUMO gap:      2.65526243 eV.
  Calculating total energy contributions from superposition of free atom densities.

  Total energy components:
  | Sum of eigenvalues            :        -560.33588394 Ha      -15247.51518708 eV
  | XC energy correction          :        -132.74466596 Ha       -3612.16614585 eV
  | XC potential correction       :         170.50596393 Ha        4639.70334417 eV
  | Free-atom electrostatic energy:        -402.41738160 Ha      -10950.33410019 eV
  | Hartree energy correction     :           0.00000000 Ha           0.00000000 eV
  | Entropy correction            :           0.00000000 Ha           0.00000000 eV
  | ---------------------------
  | Total energy                  :        -924.99196757 Ha      -25170.31208896 eV
  | Total energy, T -> 0          :        -924.99196757 Ha      -25170.31208896 eV  <-- do not rely on this value for anything but (periodic) metals
  | Electronic free energy        :        -924.99196757 Ha      -25170.31208896 eV

  Derived energy quantities:
  | Kinetic energy                :         915.88582958 Ha       24922.52146668 eV
  | Electrostatic energy          :       -1708.13313118 Ha      -46480.66740978 eV
  | Energy correction for multipole
  | error in Hartree potential    :           0.00000000 Ha           0.00000000 eV
  | Sum of eigenvalues per atom                           :        -381.18787968 eV
  | Total energy (T->0) per atom                          :        -629.25780222 eV  <-- do not rely on this value for anything but (periodic) metals
  | Electronic free energy per atom                       :        -629.25780222 eV
  Initialize hartree_potential_storage
  Max. number of atoms included in rho_multipole:           40

  End scf initialization - timings             :  max(cpu_time)    wall_clock(cpu1)
  | Time for scf. initialization               :        4.791 s           4.869 s
  | Boundary condition initialization          :        0.001 s           0.005 s
  | Integration                                :        3.461 s           3.469 s
  | Solution of K.-S. eqns.                    :        0.161 s           0.182 s
  | Grid partitioning                          :        0.584 s           0.588 s
  | Preloading free-atom quantities on grid    :        0.014 s           0.018 s
  | Free-atom superposition energy             :        0.045 s           0.046 s
  | Total energy evaluation                    :        0.001 s           0.006 s

  Partial memory accounting:
  | Current value for overall tracked memory usage on task 0  :           3.827 MB
  | Peak value for overall tracked memory usage on task 0     :          24.521 MB after allocating zora_vector2
  | Largest tracked array allocation on task 0 so far         :           5.618 MB  when allocating hamiltonian_shell
  Note:  These values currently only include a subset of arrays which are explicitly tracked.
  The "true" memory usage will be greater.
------------------------------------------------------------

------------------------------------------------------------
          Begin self-consistency iteration #    1

  Date     :  20210727, Time     :  232008.720
------------------------------------------------------------
  Evaluating new KS density.
  Integration grid: deviation in total charge (<rho> - N_e) =   8.526513E-14
  Pulay mixing of updated and previous charge densities.

  Evaluating partitioned Hartree potential by multipole expansion.
  | Analytical far-field extrapolation by fixed multipoles:
  | Hartree multipole sum: apparent total charge =  -0.929656E-04
  Summing up the Hartree potential with load balancing.
  Time summed over all CPUs for potential: real work       17.766 s, elapsed       28.558 s
  | RMS charge density error from multipole expansion :   0.116091E-01

  Start compute_balanced_batch_distribution
  Done load balancing, time needed:      0.006 s
  Integrating Hamiltonian matrix: batch-based integration with load balancing
  Time summed over all CPUs for integration: real work      107.152 s, elapsed      119.373 s
  Time get_set_full_local_matrix_scalapack:     0.012075 s
  Start compute_balanced_batch_distribution
  Done load balancing, time needed:      0.005 s

  Updating Kohn-Sham eigenvalues and eigenvectors using ELSI and the ELPA eigensolver.
  Finished transformation to standard eigenproblem
  | Time :     0.010 s
  Starting ELPA eigensolver
  Finished solving standard eigenproblem
  | Time :     0.060 s
  Finished back-transformation of eigenvectors
  | Time :     0.003 s

  Obtaining occupation numbers and chemical potential using ELSI.
  | Chemical potential (Fermi level):    -4.09798721 eV
  Writing Kohn-Sham eigenvalues.

  State    Occupation    Eigenvalue [Ha]    Eigenvalue [eV]
      1       2.00000          -9.982431         -271.63577
      2       2.00000          -9.982304         -271.63231
      3       2.00000          -9.980736         -271.58964
      4       2.00000          -9.976748         -271.48112
      5       2.00000          -9.974819         -271.42863
      6       2.00000          -9.969938         -271.29583
      7       2.00000          -9.966850         -271.21178
      8       2.00000          -9.966392         -271.19932
      9       2.00000          -9.956364         -270.92644
     10       2.00000          -9.955886         -270.91344
     11       2.00000          -9.955613         -270.90600
     12       2.00000          -9.949026         -270.72678
     13       2.00000          -9.947159         -270.67597
     14       2.00000          -9.946142         -270.64829
     15       2.00000          -9.945198         -270.62262
     16       2.00000          -9.944486         -270.60325
     17       2.00000          -9.944070         -270.59190
     18       2.00000          -9.943783         -270.58411
     19       2.00000          -9.943357         -270.57251
     20       2.00000          -9.941800         -270.53014
     21       2.00000          -9.941792         -270.52993
     22       2.00000          -9.940911         -270.50595
     23       2.00000          -9.939681         -270.47249
     24       2.00000          -9.938595         -270.44293
     25       2.00000          -0.869008          -23.64690
     26       2.00000          -0.847987          -23.07489
     27       2.00000          -0.835804          -22.74337
     28       2.00000          -0.814436          -22.16192
     29       2.00000          -0.793790          -21.60012
     30       2.00000          -0.768359          -20.90810
     31       2.00000          -0.753824          -20.51258
     32       2.00000          -0.736597          -20.04382
     33       2.00000          -0.732886          -19.94285
     34       2.00000          -0.731870          -19.91521
     35       2.00000          -0.710519          -19.33420
     36       2.00000          -0.698693          -19.01241
     37       2.00000          -0.644509          -17.53798
     38       2.00000          -0.630722          -17.16281
     39       2.00000          -0.618438          -16.82855
     40       2.00000          -0.607690          -16.53607
     41       2.00000          -0.601858          -16.37740
     42       2.00000          -0.595324          -16.19960
     43       2.00000          -0.588126          -16.00371
     44       2.00000          -0.554445          -15.08721
     45       2.00000          -0.536685          -14.60394
     46       2.00000          -0.530748          -14.44238
     47       2.00000          -0.512893          -13.95652
     48       2.00000          -0.509238          -13.85706
     49       2.00000          -0.491803          -13.38264
     50       2.00000          -0.477301          -12.98802
     51       2.00000          -0.470425          -12.80091
     52       2.00000          -0.468550          -12.74991
     53       2.00000          -0.460644          -12.53476
     54       2.00000          -0.449600          -12.23423
     55       2.00000          -0.446885          -12.16037
     56       2.00000          -0.439970          -11.97218
     57       2.00000          -0.438691          -11.93740
     58       2.00000          -0.431386          -11.73862
     59       2.00000          -0.427382          -11.62965
     60       2.00000          -0.424862          -11.56108
     61       2.00000          -0.412316          -11.21970
     62       2.00000          -0.409361          -11.13928
     63       2.00000          -0.395798          -10.77022
     64       2.00000          -0.385141          -10.48022
     65       2.00000          -0.375672          -10.22256
     66       2.00000          -0.372265          -10.12986
     67       2.00000          -0.371946          -10.12117
     68       2.00000          -0.365703           -9.95128
     69       2.00000          -0.360578           -9.81184
     70       2.00000          -0.352066           -9.58020
     71       2.00000          -0.350308           -9.53238
     72       2.00000          -0.340971           -9.27828
     73       2.00000          -0.322957           -8.78812
     74       2.00000          -0.306927           -8.35192
     75       2.00000          -0.287219           -7.81563
     76       2.00000          -0.275130           -7.48666
     77       2.00000          -0.273390           -7.43933
     78       2.00000          -0.270309           -7.35548
     79       2.00000          -0.248288           -6.75627
     80       2.00000          -0.229760           -6.25209
     81       0.00000          -0.134961           -3.67248
     82       0.00000          -0.113293           -3.08286
     83       0.00000          -0.089922           -2.44691
     84       0.00000          -0.084127           -2.28921
     85       0.00000          -0.080919           -2.20191
     86       0.00000          -0.070367           -1.91479
     87       0.00000          -0.050610           -1.37717
     88       0.00000          -0.028979           -0.78855
     89       0.00000          -0.027075           -0.73676
     90       0.00000          -0.023744           -0.64610
     91       0.00000          -0.020118           -0.54743
     92       0.00000          -0.012261           -0.33364
     93       0.00000          -0.002402           -0.06535
     94       0.00000          -0.000058           -0.00159
     95       0.00000           0.006618            0.18010
     96       0.00000           0.011839            0.32216
     97       0.00000           0.017649            0.48026
     98       0.00000           0.019595            0.53321
     99       0.00000           0.026564            0.72285
    100       0.00000           0.032796            0.89244
    101       0.00000           0.038447            1.04618
    102       0.00000           0.040870            1.11213
    103       0.00000           0.043612            1.18674
    104       0.00000           0.056152            1.52798
    105       0.00000           0.065798            1.79044
    106       0.00000           0.068249            1.85715
    107       0.00000           0.070025            1.90548
    108       0.00000           0.076310            2.07650
    109       0.00000           0.083460            2.27106
    110       0.00000           0.095370            2.59515
    111       0.00000           0.096936            2.63777
    112       0.00000           0.100156            2.72538
    113       0.00000           0.105587            2.87318
    114       0.00000           0.106611            2.90104
    115       0.00000           0.114133            3.10571
    116       0.00000           0.119295            3.24619
    117       0.00000           0.120948            3.29116
    118       0.00000           0.122849            3.34290
    119       0.00000           0.126053            3.43007
    120       0.00000           0.130524            3.55174
    121       0.00000           0.135010            3.67381
    122       0.00000           0.137801            3.74976
    123       0.00000           0.138677            3.77359
    124       0.00000           0.140748            3.82994
    125       0.00000           0.147019            4.00058
    126       0.00000           0.149246            4.06120
    127       0.00000           0.151620            4.12578
    128       0.00000           0.156395            4.25573
    129       0.00000           0.159726            4.34635
    130       0.00000           0.161795            4.40267
    131       0.00000           0.166700            4.53614
    132       0.00000           0.171182            4.65809
    133       0.00000           0.172616            4.69713
    134       0.00000           0.178370            4.85370
    135       0.00000           0.181600            4.94158
    136       0.00000           0.184067            5.00871
    137       0.00000           0.186326            5.07020
    138       0.00000           0.190518            5.18426
    139       0.00000           0.192947            5.25037
    140       0.00000           0.194022            5.27960
    141       0.00000           0.196630            5.35057
    142       0.00000           0.199782            5.43634
    143       0.00000           0.202736            5.51673
    144       0.00000           0.206619            5.62240
    145       0.00000           0.210309            5.72279
    146       0.00000           0.211781            5.76285
    147       0.00000           0.213168            5.80060
    148       0.00000           0.217460            5.91740
    149       0.00000           0.220364            5.99640
    150       0.00000           0.225186            6.12762
    151       0.00000           0.230025            6.25930
    152       0.00000           0.237045            6.45032
    153       0.00000           0.238672            6.49458
    154       0.00000           0.239536            6.51810
    155       0.00000           0.241857            6.58127
    156       0.00000           0.246737            6.71407
    157       0.00000           0.251809            6.85206
    158       0.00000           0.254848            6.93477
    159       0.00000           0.260185            7.08000
    160       0.00000           0.261913            7.12701
    161       0.00000           0.262711            7.14872
    162       0.00000           0.272679            7.41998
    163       0.00000           0.275305            7.49142
    164       0.00000           0.278936            7.59025
    165       0.00000           0.282200            7.67904
    166       0.00000           0.283588            7.71682
    167       0.00000           0.293326            7.98181
    168       0.00000           0.301119            8.19386
    169       0.00000           0.304684            8.29086
    170       0.00000           0.307614            8.37060
    171       0.00000           0.309369            8.41835
    172       0.00000           0.311854            8.48599
    173       0.00000           0.316957            8.62483
    174       0.00000           0.320684            8.72625
    175       0.00000           0.329412            8.96376
    176       0.00000           0.332935            9.05961

  Highest occupied state (VBM) at     -6.25209417 eV
  | Occupation number:      2.00000000

  Lowest unoccupied state (CBM) at    -3.67248219 eV
  | Occupation number:      0.00000000

  Overall HOMO-LUMO gap:      2.57961197 eV.

  Total energy components:
  | Sum of eigenvalues            :        -534.58426889 Ha      -14546.77808852 eV
  | XC energy correction          :        -134.51579164 Ha       -3660.36092773 eV
  | XC potential correction       :         172.80544916 Ha        4702.27552069 eV
  | Free-atom electrostatic energy:        -402.41738160 Ha      -10950.33410019 eV
  | Hartree energy correction     :         -25.42205182 Ha        -691.76922678 eV
  | Entropy correction            :           0.00000000 Ha           0.00000000 eV
  | ---------------------------
  | Total energy                  :        -924.13404480 Ha      -25146.96682253 eV
  | Total energy, T -> 0          :        -924.13404480 Ha      -25146.96682253 eV  <-- do not rely on this value for anything but (periodic) metals
  | Electronic free energy        :        -924.13404480 Ha      -25146.96682253 eV

  Derived energy quantities:
  | Kinetic energy                :         923.85808291 Ha       25139.45751741 eV
  | Electrostatic energy          :       -1713.47633606 Ha      -46626.06341221 eV
  | Energy correction for multipole
  | error in Hartree potential    :          -0.05803601 Ha          -1.57924023 eV
  | Sum of eigenvalues per atom                           :        -363.66945221 eV
  | Total energy (T->0) per atom                          :        -628.67417056 eV  <-- do not rely on this value for anything but (periodic) metals
  | Electronic free energy per atom                       :        -628.67417056 eV

  Self-consistency convergence accuracy:
  | Change of charge density      :  0.9881E+00
  | Change of sum of eigenvalues  :  0.7007E+03 eV
  | Change of total energy        :  0.2335E+02 eV

  End self-consistency iteration #     1       :  max(cpu_time)    wall_clock(cpu1)
  | Time for this iteration                    :        3.581 s           3.590 s
  | Charge density update                      :        0.793 s           0.793 s
  | Density mixing                             :        0.002 s           0.005 s
  | Hartree multipole update                   :        0.008 s           0.011 s
  | Hartree multipole summation                :        0.519 s           0.521 s
  | Integration                                :        2.136 s           2.136 s
  | Solution of K.-S. eqns.                    :        0.107 s           0.108 s
  | Total energy evaluation                    :        0.000 s           0.000 s

  Partial memory accounting:
  | Current value for overall tracked memory usage on task 0  :           3.827 MB
  | Peak value for overall tracked memory usage on task 0     :          25.063 MB after allocating zora_vector2
  | Largest tracked array allocation on task 0 so far         :           5.618 MB  when allocating hamiltonian_shell
  Note:  These values currently only include a subset of arrays which are explicitly tracked.
  The "true" memory usage will be greater.
------------------------------------------------------------

------------------------------------------------------------
          Begin self-consistency iteration #    2

  Date     :  20210727, Time     :  232012.312
------------------------------------------------------------
  Evaluating new KS density.
  Integration grid: deviation in total charge (<rho> - N_e) =   1.136868E-13
  Pulay mixing of updated and previous charge densities.

  Evaluating partitioned Hartree potential by multipole expansion.
  | Analytical far-field extrapolation by fixed multipoles:
  | Hartree multipole sum: apparent total charge =  -0.929206E-04
  Summing up the Hartree potential with load balancing.
  Time summed over all CPUs for potential: real work       17.918 s, elapsed       20.649 s
  | RMS charge density error from multipole expansion :   0.203504E-01

  Integrating Hamiltonian matrix: batch-based integration with load balancing
  Time summed over all CPUs for integration: real work      108.375 s, elapsed      113.796 s
  Time get_set_full_local_matrix_scalapack:     0.013419 s

  Updating Kohn-Sham eigenvalues and eigenvectors using ELSI and the ELPA eigensolver.
  Finished transformation to standard eigenproblem
  | Time :     0.009 s
  Starting ELPA eigensolver
  Finished solving standard eigenproblem
  | Time :     0.061 s
  Finished back-transformation of eigenvectors
  | Time :     0.003 s

  Obtaining occupation numbers and chemical potential using ELSI.
  | Chemical potential (Fermi level):    -3.28978190 eV
  Highest occupied state (VBM) at     -5.07140588 eV
  | Occupation number:      2.00000000

  Lowest unoccupied state (CBM) at    -2.52199210 eV
  | Occupation number:      0.00000000

  Overall HOMO-LUMO gap:      2.54941378 eV.

  Checking to see if s.c.f. parameters should be adjusted.

  Total energy components:
  | Sum of eigenvalues            :        -526.12761232 Ha      -14316.66075488 eV
  | XC energy correction          :        -135.27661805 Ha       -3681.06406752 eV
  | XC potential correction       :         173.78385006 Ha        4728.89916380 eV
  | Free-atom electrostatic energy:        -402.41738160 Ha      -10950.33410019 eV
  | Hartree energy correction     :         -33.98875255 Ha        -924.88101431 eV
  | Entropy correction            :           0.00000000 Ha           0.00000000 eV
  | ---------------------------
  | Total energy                  :        -924.02651446 Ha      -25144.04077311 eV
  | Total energy, T -> 0          :        -924.02651446 Ha      -25144.04077311 eV  <-- do not rely on this value for anything but (periodic) metals
  | Electronic free energy        :        -924.02651446 Ha      -25144.04077311 eV

  Derived energy quantities:
  | Kinetic energy                :         923.87393389 Ha       25139.88884472 eV
  | Electrostatic energy          :       -1712.62383031 Ha      -46602.86555031 eV
  | Energy correction for multipole
  | error in Hartree potential    :          -0.09339632 Ha          -2.54144308 eV
  | Sum of eigenvalues per atom                           :        -357.91651887 eV
  | Total energy (T->0) per atom                          :        -628.60101933 eV  <-- do not rely on this value for anything but (periodic) metals
  | Electronic free energy per atom                       :        -628.60101933 eV

  Self-consistency convergence accuracy:
  | Change of charge density      :  0.4821E+00
  | Change of sum of eigenvalues  :  0.2301E+03 eV
  | Change of total energy        :  0.2926E+01 eV

  End self-consistency iteration #     2       :  max(cpu_time)    wall_clock(cpu1)
  | Time for this iteration                    :        3.296 s           3.302 s
  | Charge density update                      :        0.764 s           0.764 s
[...]
      6       2.00000          -9.905771         -269.54975
      7       2.00000          -9.905455         -269.54113
      8       2.00000          -9.905447         -269.54093
      9       2.00000          -9.897654         -269.32886
     10       2.00000          -9.897344         -269.32043
     11       2.00000          -9.896237         -269.29031
     12       2.00000          -9.896180         -269.28876
     13       2.00000          -9.896103         -269.28666
     14       2.00000          -9.895774         -269.27770
     15       2.00000          -9.895753         -269.27714
     16       2.00000          -9.895574         -269.27227
     17       2.00000          -9.895235         -269.26305
     18       2.00000          -9.895154         -269.26084
     19       2.00000          -9.895146         -269.26063
     20       2.00000          -9.894745         -269.24971
     21       2.00000          -9.894076         -269.23150
     22       2.00000          -9.893427         -269.21384
     23       2.00000          -9.893058         -269.20379
     24       2.00000          -9.892569         -269.19049
     25       2.00000          -0.815593          -22.19342
     26       2.00000          -0.798253          -21.72158
     27       2.00000          -0.787459          -21.42786
     28       2.00000          -0.762810          -20.75710
     29       2.00000          -0.739120          -20.11249
     30       2.00000          -0.712867          -19.39810
     31       2.00000          -0.700768          -19.06886
     32       2.00000          -0.682035          -18.55912
     33       2.00000          -0.680483          -18.51689
     34       2.00000          -0.678368          -18.45934
     35       2.00000          -0.655535          -17.83802
     36       2.00000          -0.640986          -17.44212
     37       2.00000          -0.588770          -16.02125
     38       2.00000          -0.572944          -15.59061
     39       2.00000          -0.560032          -15.23924
     40       2.00000          -0.551027          -14.99422
     41       2.00000          -0.544368          -14.81299
     42       2.00000          -0.537783          -14.63383
     43       2.00000          -0.530003          -14.42211
     44       2.00000          -0.496436          -13.50872
     45       2.00000          -0.479531          -13.04870
     46       2.00000          -0.472342          -12.85308
     47       2.00000          -0.454270          -12.36131
     48       2.00000          -0.448243          -12.19733
     49       2.00000          -0.433275          -11.79000
     50       2.00000          -0.417949          -11.37296
     51       2.00000          -0.413078          -11.24041
     52       2.00000          -0.409657          -11.14733
     53       2.00000          -0.400100          -10.88727
     54       2.00000          -0.391115          -10.64278
     55       2.00000          -0.386879          -10.52751
     56       2.00000          -0.381524          -10.38179
     57       2.00000          -0.378805          -10.30782
     58       2.00000          -0.376010          -10.23174
     59       2.00000          -0.370918          -10.09319
     60       2.00000          -0.366820           -9.98167
     61       2.00000          -0.363441           -9.88972
     62       2.00000          -0.350449           -9.53620
     63       2.00000          -0.346738           -9.43522
     64       2.00000          -0.335721           -9.13544
     65       2.00000          -0.334073           -9.09059
     66       2.00000          -0.314149           -8.54843
     67       2.00000          -0.312883           -8.51398
     68       2.00000          -0.312461           -8.50250
     69       2.00000          -0.305962           -8.32564
     70       2.00000          -0.300440           -8.17538
     71       2.00000          -0.289966           -7.89036
     72       2.00000          -0.280741           -7.63935
     73       2.00000          -0.278219           -7.57072
     74       2.00000          -0.266646           -7.25580
     75       2.00000          -0.247662           -6.73923
     76       2.00000          -0.236568           -6.43735
     77       2.00000          -0.233653           -6.35804
     78       2.00000          -0.230716           -6.27811
     79       2.00000          -0.207013           -5.63312
     80       2.00000          -0.186582           -5.07717
     81       0.00000          -0.092281           -2.51110
     82       0.00000          -0.071187           -1.93709
     83       0.00000          -0.049966           -1.35966
     84       0.00000          -0.043927           -1.19531
     85       0.00000          -0.040043           -1.08963
     86       0.00000          -0.029968           -0.81548
     87       0.00000          -0.009877           -0.26878
     88       0.00000          -0.006871           -0.18697
     89       0.00000          -0.002240           -0.06097
     90       0.00000           0.001722            0.04686
     91       0.00000           0.009506            0.25868
     92       0.00000           0.014602            0.39733
     93       0.00000           0.018097            0.49246
     94       0.00000           0.019888            0.54119
     95       0.00000           0.026442            0.71953
     96       0.00000           0.033279            0.90557
     97       0.00000           0.038652            1.05179
     98       0.00000           0.048426            1.31774
     99       0.00000           0.049375            1.34356
    100       0.00000           0.057475            1.56399
    101       0.00000           0.061805            1.68180
    102       0.00000           0.063827            1.73682
    103       0.00000           0.068050            1.85173
    104       0.00000           0.086719            2.35974
    105       0.00000           0.092157            2.50772
    106       0.00000           0.096474            2.62520
    107       0.00000           0.103061            2.80443
    108       0.00000           0.104771            2.85096
    109       0.00000           0.112289            3.05553
    110       0.00000           0.116797            3.17821
    111       0.00000           0.121112            3.29564
    112       0.00000           0.127365            3.46577
    113       0.00000           0.133645            3.63666
    114       0.00000           0.135051            3.67493
    115       0.00000           0.136297            3.70883
    116       0.00000           0.147498            4.01364
    117       0.00000           0.151960            4.13503
    118       0.00000           0.152983            4.16288
    119       0.00000           0.158050            4.30076
    120       0.00000           0.158716            4.31888
    121       0.00000           0.161075            4.38308
    122       0.00000           0.163780            4.45669
    123       0.00000           0.166940            4.54266
    124       0.00000           0.170539            4.64060
    125       0.00000           0.172113            4.68343
    126       0.00000           0.180260            4.90513
    127       0.00000           0.185501            5.04774
    128       0.00000           0.187517            5.10261
    129       0.00000           0.188971            5.14215
    130       0.00000           0.193467            5.26451
    131       0.00000           0.197503            5.37434
    132       0.00000           0.203428            5.53555
    133       0.00000           0.207698            5.65175
    134       0.00000           0.208996            5.68706
    135       0.00000           0.211020            5.74216
    136       0.00000           0.214685            5.84187
    137       0.00000           0.216031            5.87849
    138       0.00000           0.218476            5.94504
    139       0.00000           0.225030            6.12339
    140       0.00000           0.227242            6.18357
    141       0.00000           0.227444            6.18906
    142       0.00000           0.233231            6.34653
    143       0.00000           0.234422            6.37893
    144       0.00000           0.238293            6.48427
    145       0.00000           0.240487            6.54398
    146       0.00000           0.243113            6.61545
    147       0.00000           0.245483            6.67993
    148       0.00000           0.250220            6.80882
    149       0.00000           0.252798            6.87899
    150       0.00000           0.254815            6.93388
    151       0.00000           0.258007            7.02072
    152       0.00000           0.263874            7.18039
    153       0.00000           0.268666            7.31077
    154       0.00000           0.270819            7.36935
    155       0.00000           0.271600            7.39060
    156       0.00000           0.276260            7.51742
    157       0.00000           0.284478            7.74103
    158       0.00000           0.289079            7.86623
    159       0.00000           0.290144            7.89523
    160       0.00000           0.294107            8.00305
    161       0.00000           0.295837            8.05012
    162       0.00000           0.301589            8.20666
    163       0.00000           0.306546            8.34154
    164       0.00000           0.306976            8.35324
    165       0.00000           0.317122            8.62933
    166       0.00000           0.322151            8.76618
    167       0.00000           0.330003            8.97983
    168       0.00000           0.333659            9.07933
    169       0.00000           0.334799            9.11034
    170       0.00000           0.339320            9.23335
    171       0.00000           0.344338            9.36992
    172       0.00000           0.345655            9.40576
    173       0.00000           0.349179            9.50165
    174       0.00000           0.350121            9.52729
    175       0.00000           0.361125            9.82670
    176       0.00000           0.365116            9.93530

  Highest occupied state (VBM) at     -5.07716508 eV
  | Occupation number:      2.00000000

  Lowest unoccupied state (CBM) at    -2.51109838 eV
  | Occupation number:      0.00000000

  Overall HOMO-LUMO gap:      2.56606670 eV.

  Total energy components:
  | Sum of eigenvalues            :        -525.86929125 Ha      -14309.63148098 eV
  | XC energy correction          :        -135.31986058 Ha       -3682.24075686 eV
  | XC potential correction       :         173.83372869 Ha        4730.25643035 eV
  | Free-atom electrostatic energy:        -402.41738160 Ha      -10950.33410019 eV
  | Hartree energy correction     :         -34.04276539 Ha        -926.35077852 eV
  | Entropy correction            :           0.00000000 Ha           0.00000000 eV
  | ---------------------------
  | Total energy                  :        -923.81557014 Ha      -25138.30068621 eV
  | Total energy, T -> 0          :        -923.81557014 Ha      -25138.30068621 eV  <-- do not rely on this value for anything but (periodic) metals
  | Electronic free energy        :        -923.81557014 Ha      -25138.30068621 eV

  Derived energy quantities:
  | Kinetic energy                :         921.37509031 Ha       25071.89185118 eV
  | Electrostatic energy          :       -1709.87079987 Ha      -46527.95178052 eV
  | Energy correction for multipole
  | error in Hartree potential    :          -0.10763636 Ha          -2.92893428 eV
  | Sum of eigenvalues per atom                           :        -357.74078702 eV
  | Total energy (T->0) per atom                          :        -628.45751716 eV  <-- do not rely on this value for anything but (periodic) metals
  | Electronic free energy per atom                       :        -628.45751716 eV
  End evaluation of scaled ZORA corrections.
  | Time for scaled ZORA corrections           :        3.315 s           3.326 s
------------------------------------------------------------

  Energy and forces in a compact form:
  | Total energy uncorrected      :         -0.251383006862051E+05 eV
  | Total energy corrected        :         -0.251383006862051E+05 eV  <-- do not rely on this value for anything but (periodic) metals
  | Electronic free energy        :         -0.251383006862051E+05 eV

  ------------------------------------ 
  Start decomposition of the XC Energy 
  ------------------------------------ 
  X and C from original XC functional choice 
  Hartree-Fock Energy :          0.000000000 Ha              0.000000000 eV
  X Energy            :       -129.978357894 Ha          -3536.891073341 eV
  C Energy            :         -5.341502691 Ha           -145.349683523 eV
  Total XC Energy     :       -135.319860585 Ha          -3682.240756863 eV
  ------------------------------------ 
  LDA X and C from self-consistent density 
  X Energy LDA        :       -117.700533963 Ha          -3202.794485523 eV
  C Energy LDA        :        -10.306217140 Ha           -280.446437325 eV
  ------------------------------------ 
  End decomposition of the XC Energy 
  ------------------------------------ 

------------------------------------------------------------

------------------------------------------------------------------------------
  Final output of selected total energy values:

  The following output summarizes some interesting total energy values
  at the end of a run (AFTER all relaxation, molecular dynamics, etc.).

  | Total energy of the DFT / Hartree-Fock s.c.f. calculation      :         -25138.300686205 eV
  | Final zero-broadening corrected energy (caution - metals only) :         -25138.300686205 eV
  | For reference only, the value of 1 Hartree used in FHI-aims is :             27.211384500 eV

  Before relying on these values, please be sure to understand exactly which
  total energy value is referred to by a given number. Different objects may
  all carry the same name 'total energy'. Definitions:

  Total energy of the DFT / Hartree-Fock s.c.f. calculation:
  | Note that this energy does not include ANY quantities calculated after the
  | s.c.f. cycle, in particular not ANY RPA, MP2, etc. many-body perturbation terms.
  | Scalar relativistic effects have been included in the 'scaled ZORA' approximation.

  Final zero-broadening corrected energy:
  | For metallic systems only, a broadening of the occupation numbers at the Fermi
  | level can be extrapolated back to zero broadening by an electron-gas inspired
  | formula. For all systems that are not real metals, this value can be
  | meaningless and should be avoided.

------------------------------------------------------------------------------
  Methods described in the following list of references were used in this FHI-aims run.
  If you publish the results, please make sure to cite these reference if they apply.
  FHI-aims is an academic code, and for our developers (often, Ph.D. students
  and postdocs), scientific credit in the community is essential.
  Thank you for helping us!

  For any use of FHI-aims, please cite:

    Volker Blum, Ralf Gehrke, Felix Hanke, Paula Havu, Ville Havu,
    Xinguo Ren, Karsten Reuter, and Matthias Scheffler
    'Ab initio molecular simulations with numeric atom-centered orbitals'
    Computer Physics Communications 180, 2175-2196 (2009)
    http://dx.doi.org/10.1016/j.cpc.2009.06.022


  The scalable eigensolver library ELPA was used in your run.
  ELPA is essential especially for large systems on hundreds or thousands of CPUs.
  For ELPA, please cite:

    Andreas Marek, Volker Blum, Rainer Johanni, Ville Havu, Bruno Lang,
    Thomas Auckenthaler, Alexander Heinecke, Hans-Joachim Bungartz, and Hermann Lederer,
    'The ELPA Library - Scalable Parallel Eigenvalue Solutions
    for Electronic Structure Theory and Computational Science'
    The Journal of Physics: Condensed Matter 26, 213201 (2014).
    http://dx.doi.org/10.1088/0953-8984/26/21/213201


  The ELSI infrastructure was used in your run to solve the Kohn-Sham electronic structure.
  Please check out http://elsi-interchange.org to learn more.
  If scalability is important for your project, please acknowledge ELSI by citing:

    V. W-z. Yu, F. Corsetti, A. Garcia, W. P. Huhn, M. Jacquelin, W. Jia,
    B. Lange, L. Lin, J. Lu, W. Mi, A. Seifitokaldani, A. Vazquez-Mayagoitia,
    C. Yang, H. Yang, and V. Blum
    'ELSI: A unified software interface for Kohn-Sham electronic structure solvers'
    Computer Physics Communications 222, 267-285 (2018).
    http://dx.doi.org/10.1016/j.cpc.2017.09.007


  For the real-space grid partitioning and parallelization used in this calculation, please cite:

    Ville Havu, Volker Blum, Paula Havu, and Matthias Scheffler,
    'Efficient O(N) integration for all-electron electronic structure calculation'
    'using numerically tabulated basis functions'
    Journal of Computational Physics 228, 8367-8379 (2009).
    http://dx.doi.org/10.1016/j.jcp.2009.08.008

  Of course, there are many other important community references, e.g., those cited in the
  above references. Our list is limited to references that describe implementations in the
  FHI-aims code. The reason is purely practical (length of this list) - please credit others as well.

------------------------------------------------------------
          Leaving FHI-aims.
          Date     :  20210727, Time     :  232108.452

          Computational steps:
          | Number of self-consistency cycles          :           17
          | Number of SCF (re)initializations          :            1

          Detailed time accounting                     :  max(cpu_time)    wall_clock(cpu1)
          | Total time                                 :       64.817 s          65.056 s
          | Preparation time                           :        0.196 s           0.211 s
          | Boundary condition initalization           :        0.001 s           0.005 s
          | Grid partitioning                          :        0.584 s           0.588 s
          | Preloading free-atom quantities on grid    :        0.014 s           0.018 s
          | Free-atom superposition energy             :        0.045 s           0.046 s
          | Total time for integrations                :       38.122 s          38.133 s
          | Total time for solution of K.-S. equations :        1.941 s           1.969 s
          | Total time for density update              :       13.067 s          13.026 s
          | Total time for mixing                      :        0.106 s           0.111 s
          | Total time for Hartree multipole update    :        0.136 s           0.143 s
          | Total time for Hartree multipole sum       :        6.457 s           6.461 s
          | Total time for total energy evaluation     :        0.007 s           0.034 s
          | Total time for scaled ZORA corrections     :        3.315 s           3.326 s

          Partial memory accounting:
          | Residual value for overall tracked memory usage across tasks :     0.000000 MB (should be 0.000000 MB)
          | Peak values for overall tracked memory usage (after allocating zora_vector2):
          |   Minimum:       21.224 MB (on task 41)
          |   Maximum:       26.589 MB (on task 52)
          |   Average:       23.714 MB
          | Largest tracked array allocation (hamiltonian_shell):
          |   Minimum:        5.618 MB (on task  1)
          |   Maximum:        5.618 MB (on task  1)
          |   Average:        5.618 MB
          Note:  These values currently only include a subset of arrays which are explicitly tracked.
          The "true" memory usage will be greater.

          Have a nice day.
------------------------------------------------------------
