  MPI-parallelism will be employed.
------------------------------------------------------------
          Invoking FHI-aims ...
          Version 180607
          Git rev. (modified): 6724847 Fix JSON memory corruption in scf_solver
          Compiled on 2018/06/27 at 16:00:31 on host coe.psc.edu.

          When using FHI-aims, please cite the following reference:

          Volker Blum, Ralf Gehrke, Felix Hanke, Paula Havu,
          Ville Havu, Xinguo Ren, Karsten Reuter, and Matthias Scheffler,
          'Ab Initio Molecular Simulations with Numeric Atom-Centered Orbitals',
          Computer Physics Communications 180, 2175-2196 (2009)

          For any questions about FHI-aims, please visit the aimsclub website
          with its forums and wiki. Contributions to both the forums and the
          wiki are warmly encouraged - they are for you, and everyone is welcome there.

------------------------------------------------------------



  Date     :  20210620, Time     :  174553.931
  Time zero on CPU 1             :   0.398758000000000E+00  s.
  Internal wall clock time zero  :           393443153.931  s.

  FHI-aims created a unique identifier for this run for later identification
  aims_uuid : 4D912ACA-D9EF-444A-A75A-85B72DECE66C

  Using       56 parallel tasks.
  Task        0 on host d021 reporting.
  Task        1 on host d021 reporting.
  Task        2 on host d021 reporting.
  Task        3 on host d021 reporting.
  Task        4 on host d021 reporting.
  Task        5 on host d021 reporting.
  Task        6 on host d021 reporting.
  Task        7 on host d021 reporting.
  Task        8 on host d021 reporting.
  Task        9 on host d021 reporting.
  Task       10 on host d021 reporting.
  Task       11 on host d021 reporting.
  Task       12 on host d021 reporting.
  Task       13 on host d021 reporting.
  Task       14 on host d021 reporting.
  Task       15 on host d021 reporting.
  Task       16 on host d021 reporting.
  Task       17 on host d021 reporting.
  Task       18 on host d021 reporting.
  Task       19 on host d021 reporting.
  Task       20 on host d021 reporting.
  Task       21 on host d021 reporting.
  Task       22 on host d021 reporting.
  Task       23 on host d021 reporting.
  Task       24 on host d021 reporting.
  Task       25 on host d021 reporting.
  Task       26 on host d021 reporting.
  Task       27 on host d021 reporting.
  Task       28 on host d021 reporting.
  Task       29 on host d021 reporting.
  Task       30 on host d021 reporting.
  Task       31 on host d021 reporting.
  Task       32 on host d021 reporting.
  Task       33 on host d021 reporting.
  Task       34 on host d021 reporting.
  Task       35 on host d021 reporting.
  Task       36 on host d021 reporting.
  Task       37 on host d021 reporting.
  Task       38 on host d021 reporting.
  Task       39 on host d021 reporting.
  Task       40 on host d021 reporting.
  Task       41 on host d021 reporting.
  Task       42 on host d021 reporting.
  Task       43 on host d021 reporting.
  Task       44 on host d021 reporting.
  Task       45 on host d021 reporting.
  Task       46 on host d021 reporting.
  Task       47 on host d021 reporting.
  Task       48 on host d021 reporting.
  Task       49 on host d021 reporting.
  Task       50 on host d021 reporting.
  Task       51 on host d021 reporting.
  Task       52 on host d021 reporting.
  Task       53 on host d021 reporting.
  Task       54 on host d021 reporting.
  Task       55 on host d021 reporting.

  Performing system and environment tests:
  *** Environment variable OMP_NUM_THREADS is not set
  *** For performance reasons you might want to set it to 1
  | Stacksize not measured: no C compiler
  | Checking for scalapack...
  | Testing pdtran()...
  | All pdtran() tests passed.

  Obtaining array dimensions for all initial allocations:
  
  -----------------------------------------------------------------------
  Parsing control.in (first pass over file, find array dimensions only).
  The contents of control.in will be repeated verbatim below
  unless switched off by setting 'verbatim_writeout .false.' .
  in the first line of control.in .
  -----------------------------------------------------------------------
  
  #===============================================================================
  # FHI-aims file: ./Runs/es/control.in
  # Created using the Atomic Simulation Environment (ASE)
  # Mon Jan 13 16:04:38 2020
  #===============================================================================
  xc                                 pbe
  relativistic                       zora scalar 1e-12
  occupation_type                    gaussian 0.0001
  load_balancing                     .true.
  KS_method                          scalapack_fast
  mixer                              pulay
  n_max_pulay                        5
  charge_mix_param                   0.4
  sc_accuracy_etot                   1e-6
  sc_accuracy_eev                    1e-4
  sc_accuracy_rho                    1e-6
  sc_iter_limit                      100
  prodbas_threshold                  1e-4
  basis_threshold                    1e-5
  override_illconditioning           .true.
  use_logsbt                         .true.
  spin                               none
  charge                             0
  #===============================================================================
  
  ################################################################################
  #
  #  FHI-aims code project
  # Volker Blum, Fritz Haber Institute Berlin, 2009
  #
  #  Suggested "tight" defaults for H atom (to be pasted into control.in file)
  #
  ################################################################################
    species        H
  #     global species definitions
      nucleus             1
      mass                1.00794
  #
      l_hartree           6
  #
      cut_pot             4.0  2.0  1.0
      basis_dep_cutoff    1e-4
  #
      radial_base         24 7.0
      radial_multiplier   2
      angular_grids       specified
        division   0.1930   50
        division   0.3175  110
        division   0.4293  194
        division   0.5066  302
        division   0.5626  434
  #      division   0.5922  590
  #      division   0.6227  974
  #      division   0.6868 1202
  #      outer_grid  770
        outer_grid  434
  ################################################################################
  #
  #  Definition of "minimal" basis
  #
  ################################################################################
  #     valence basis states
      valence      1  s   1.
  #     ion occupancy
      ion_occ      1  s   0.5
  ################################################################################
  #
  #  Suggested additional basis functions. For production calculations,
  #  uncomment them one after another (the most important basis functions are
  #  listed first).
  #
  #  Basis constructed for dimers: 0.5 A, 0.7 A, 1.0 A, 1.5 A, 2.5 A
  #
  ################################################################################
  #  "First tier" - improvements: -1014.90 meV to -62.69 meV
       hydro 2 s 2.1
       hydro 2 p 3.5
  #  "Second tier" - improvements: -12.89 meV to -1.83 meV
       hydro 1 s 0.85
       hydro 2 p 3.7
       hydro 2 s 1.2
       hydro 3 d 7
  #  "Third tier" - improvements: -0.25 meV to -0.12 meV
  #     hydro 4 f 11.2
  #     hydro 3 p 4.8
  #     hydro 4 d 9
  #     hydro 3 s 3.2
  ################################################################################
  #
  # For methods that use the localized form of the "resolution of identity" for
  # the two-electron Coulomb operator (RI_method LVL), particularly Hartree-Fock and
  # hybrid density functional calculations, the highest accuracy can be obtained by
  # uncommenting the line beginning with "for_aux"  below, thus adding an extra g radial
  # function to the construction of the product basis set for the expansion.
  # See Ref. New J. Phys. 17, 093020 (2015) for more information, particularly Figs. 1 and 6.
  #
  ################################################################################
  #
  # for_aux hydro 5 g 6.0
  ################################################################################
  #
  #  FHI-aims code project
  # Volker Blum, Fritz Haber Institute Berlin, 2009
  #
  #  Suggested "tight" defaults for C atom (to be pasted into control.in file)
  #
  ################################################################################
    species        C
  #     global species definitions
      nucleus             6
      mass                12.0107
  #
      l_hartree           6
  #
      cut_pot             4.0  2.0  1.0
      basis_dep_cutoff    1e-4
  #
      radial_base         34 7.0
      radial_multiplier   2
      angular_grids specified
        division   0.2187   50
        division   0.4416  110
        division   0.6335  194
        division   0.7727  302
        division   0.8772  434
  #      division   0.9334  590
  #      division   0.9924  770
  #      division   1.0230  974
  #      division   1.5020 1202
  #     outer_grid  974
        outer_grid  434
  ################################################################################
  #
  #  Definition of "minimal" basis
  #
  ################################################################################
  #     valence basis states
      valence      2  s   2.
      valence      2  p   2.
  #     ion occupancy
      ion_occ      2  s   1.
      ion_occ      2  p   1.
  ################################################################################
  #
  #  Suggested additional basis functions. For production calculations,
  #  uncomment them one after another (the most important basis functions are
  #  listed first).
  #
  #  Constructed for dimers: 1.0 A, 1.25 A, 1.5 A, 2.0 A, 3.0 A
  #
  ################################################################################
  #  "First tier" - improvements: -1214.57 meV to -155.61 meV
       hydro 2 p 1.7
       hydro 3 d 6
       hydro 2 s 4.9
  #  "Second tier" - improvements: -67.75 meV to -5.23 meV
       hydro 4 f 9.8
       hydro 3 p 5.2
       hydro 3 s 4.3
       hydro 5 g 14.4
       hydro 3 d 6.2
  #  "Third tier" - improvements: -2.43 meV to -0.60 meV
  #     hydro 2 p 5.6
  #     hydro 2 s 1.4
  #     hydro 3 d 4.9
  #     hydro 4 f 11.2
  #  "Fourth tier" - improvements: -0.39 meV to -0.18 meV
  #     hydro 2 p 2.1
  #     hydro 5 g 16.4
  #     hydro 4 d 13.2
  #     hydro 3 s 13.6
  #     hydro 4 f 17.6
  #  Further basis functions - improvements: -0.08 meV and below
  #     hydro 3 s 2
  #     hydro 3 p 6
  #     hydro 4 d 20
  ################################################################################
  #
  # For methods that use the localized form of the "resolution of identity" for
  # the two-electron Coulomb operator (RI_method LVL), particularly Hartree-Fock and
  # hybrid density functional calculations, the highest accuracy can be obtained by
  # uncommenting the line beginning with "for_aux"  below, thus adding an extra g radial
  # function to the construction of the product basis set for the expansion.
  # See Ref. New J. Phys. 17, 093020 (2015) for more information, particularly Figs. 1 and 6.
  #
  ################################################################################
  #
  # for_aux hydro 5 g 6.0
  
  -----------------------------------------------------------------------
  Completed first pass over input file control.in .
  -----------------------------------------------------------------------
  
  
  -----------------------------------------------------------------------
  Parsing geometry.in (first pass over file, find array dimensions only).
  The contents of geometry.in will be repeated verbatim below
  unless switched off by setting 'verbatim_writeout .false.' .
  in the first line of geometry.in .
  -----------------------------------------------------------------------
  
  #=======================================================
  # FHI-aims file: geometry.in
  # Created using the Atomic Simulation Environment (ASE)
  # Sun Jun 20 15:47:02 2021
  #=======================================================
  atom 12.5882699999999996 26.9788689999999995 44.8991320000000016 H
  atom 13.3290360000000003 26.7907149999999987 45.6721399999999988 C
  atom 13.5365900000000003 25.4983369999999994 46.1679990000000018 C
  atom 14.0782559999999997 27.8635400000000004 46.2034170000000017 C
  atom 12.9513879999999997 24.6687869999999982 45.7729059999999990 H
  atom 14.4984269999999995 25.2722580000000008 47.1597170000000006 C
  atom 13.8707019999999996 29.1716410000000010 45.7075590000000034 C
  atom 15.0350310000000000 27.6374600000000008 47.1951350000000005 C
  atom 14.6578389999999992 24.2645820000000008 47.5395800000000008 H
  atom 15.2425850000000001 26.3339570000000016 47.6732849999999999 C
  atom 13.1104459999999996 29.3129619999999989 44.9453529999999972 H
  atom 14.6199220000000008 30.2444659999999992 46.2388359999999992 C
  atom 15.7842509999999994 28.6991590000000016 47.7087029999999999 C
  atom 15.9956530000000008 26.1617210000000000 48.4400949999999995 H
  atom 14.4224929999999993 31.5636940000000017 45.7606859999999998 C
  atom 15.5766969999999993 30.0026620000000008 47.2305530000000005 C
  atom 16.5303840000000015 28.4658510000000007 48.4593980000000002 H
  atom 13.4606560000000002 31.8212219999999988 44.7689689999999985 C
  atom 15.1767749999999992 32.6207939999999965 46.2919640000000001 C
  atom 16.3309800000000003 31.0597619999999992 47.7618310000000008 C
  atom 12.8505470000000006 31.0261229999999983 44.3526239999999987 H
  atom 13.2733509999999999 33.1090009999999992 44.2908189999999991 C
  atom 14.9844080000000002 33.9242970000000028 45.8138140000000007 C
  atom 16.1335499999999996 32.3632649999999984 47.2836810000000014 C
  atom 17.2624430000000011 30.8022339999999986 48.7535480000000021 C
  atom 12.5218520000000009 33.3017439999999993 43.5243630000000010 H
  atom 14.0276329999999998 34.1661009999999976 44.8220960000000019 C
  atom 15.5774559999999997 34.7563680000000019 46.1743740000000003 H
  atom 16.8979570000000017 33.4203660000000013 47.8149590000000018 C
  atom 17.4405350000000006 29.8050640000000016 49.1383700000000019 H
  atom 18.0369750000000018 31.8436100000000017 49.2848260000000025 C
  atom 13.8804719999999993 35.1818870000000032 44.4533899999999988 H
  atom 16.8035460000000008 34.4428059999999974 47.4678570000000022 H
  atom 17.8547319999999985 33.1471129999999974 48.8066760000000031 C
  atom 18.7829049999999995 31.6374160000000018 50.0503959999999992 H
  atom 18.4657519999999984 33.9596889999999973 49.2005300000000005 H
  
  -----------------------------------------------------------------------
  Completed first pass over input file geometry.in .
  -----------------------------------------------------------------------
  

  Basic array size parameters:
  | Number of species                 :        2
  | Number of atoms                   :       36
  | Max. basis fn. angular momentum   :        4
  | Max. atomic/ionic basis occupied n:        2
  | Max. number of basis fn. types    :        2
  | Max. radial fns per species/type  :        8
  | Max. logarithmic grid size        :     1277
  | Max. radial integration grid size :       69
  | Max. angular integration grid size:      434
  | Max. angular grid division number :        8
  | Radial grid for Hartree potential :     1277
  | Number of spin channels           :        1

------------------------------------------------------------
          Reading file control.in.
------------------------------------------------------------
  XC: Using PBE gradient-corrected functionals.
  Scalar relativistic treatment of kinetic energy: ZORA.
  Threshold value for ZORA:   0.100000E-11
  Occupation type: Gaussian broadening, width =   0.100000E-03 eV.
  Since 'load_balancing .true.' is present in control.in, automatically turning on 'use_local_index .true.'.
  Using load balancing for integrations.
  Kohn-Sham electronic structure solved by the ELSI library.
  Using pulay charge density mixing.
  Pulay mixing - number of memorized iterations:    5
  Charge density mixing - mixing parameter:     0.4000
  Convergence accuracy of total energy:  0.1000E-05
  Convergence accuracy of sum of eigenvalues:  0.1000E-03
  Convergence accuracy of self-consistent charge density:  0.1000E-05
  Maximum number of s.-c. iterations  :   100
  * Ignoring prodbas_threshold
  Threshold for basis singularities:  0.1000E-04
  override_illconditioning: Explicitly overriding any built-in checks for an ill-conditioned overlap matrix.
  *** WARNING: If you use this flag, you should really know what you are doing.
  *** DO NOT keep this flag set by default in all your control.in files.
  Using 1D integrations for auxiliary 2-center integrals.
  Spin treatment: No spin polarisation.
  Charge =   0.000000E+00: Neutral system requested explicitly.
 
  Reading configuration options for species H                   .
  | Found nuclear charge :   1.0000
  | Found atomic mass :    1.00794000000000      amu
  | Found l_max for Hartree potential  :   6
  | Found cutoff potl. onset [A], width [A], scale factor :    4.00000    2.00000    1.00000
  | Threshold for basis-dependent cutoff potential is   0.100000E-03
  | Found data for basic radial integration grid :    24 points, outermost radius =    7.000 A
  | Found multiplier for basic radial grid :   2
  | Found angular grid specification: user-specified.
  | Specified grid contains     6 separate shells.
  | Check grid settings after all constraints further below.
  | Found free-atom valence shell :  1 s   1.000
  | No ionic wave fns used. Skipping ion_occ.
  | Found hydrogenic basis function :  2 s   2.100
  | Found hydrogenic basis function :  2 p   3.500
  | Found hydrogenic basis function :  1 s   0.850
  | Found hydrogenic basis function :  2 p   3.700
  | Found hydrogenic basis function :  2 s   1.200
  | Found hydrogenic basis function :  3 d   7.000
  Species H                   : Missing cutoff potential type.
  Defaulting to exp(1/x)/(1-x)^2 type cutoff potential.
  Species H : No 'logarithmic' tag. Using default grid for free atom:
  | Default logarithmic grid data [bohr] : 0.1000E-03 0.1000E+03 0.1012E+01
  Species H : On-site basis accuracy parameter (for Gram-Schmidt orthonormalisation) not specified.
  Using default value basis_acc =  0.1000000E-03.
  Species H                   : Using default innermost maximum threshold i_radial=  2 for radial functions.
  Species H                   : Default cutoff onset for free atom density etc. : 0.40000000E+01 AA.
  Species H                   : Basic radial grid will be enhanced according to radial_multiplier =   2, to contain    49 grid points.
 
  Reading configuration options for species C                   .
  | Found nuclear charge :   6.0000
  | Found atomic mass :    12.0107000000000      amu
  | Found l_max for Hartree potential  :   6
  | Found cutoff potl. onset [A], width [A], scale factor :    4.00000    2.00000    1.00000
  | Threshold for basis-dependent cutoff potential is   0.100000E-03
  | Found data for basic radial integration grid :    34 points, outermost radius =    7.000 A
  | Found multiplier for basic radial grid :   2
  | Found angular grid specification: user-specified.
  | Specified grid contains     6 separate shells.
  | Check grid settings after all constraints further below.
  | Found free-atom valence shell :  2 s   2.000
  | Found free-atom valence shell :  2 p   2.000
  | No ionic wave fns used. Skipping ion_occ.
  | No ionic wave fns used. Skipping ion_occ.
  | Found hydrogenic basis function :  2 p   1.700
  | Found hydrogenic basis function :  3 d   6.000
  | Found hydrogenic basis function :  2 s   4.900
  | Found hydrogenic basis function :  4 f   9.800
  | Found hydrogenic basis function :  3 p   5.200
  | Found hydrogenic basis function :  3 s   4.300
  | Found hydrogenic basis function :  5 g  14.400
  | Found hydrogenic basis function :  3 d   6.200
  Species C                   : Missing cutoff potential type.
  Defaulting to exp(1/x)/(1-x)^2 type cutoff potential.
  Species C : No 'logarithmic' tag. Using default grid for free atom:
  | Default logarithmic grid data [bohr] : 0.1000E-03 0.1000E+03 0.1012E+01
  Species C : On-site basis accuracy parameter (for Gram-Schmidt orthonormalisation) not specified.
  Using default value basis_acc =  0.1000000E-03.
  Species C                   : Using default innermost maximum threshold i_radial=  2 for radial functions.
  Species C                   : Default cutoff onset for free atom density etc. : 0.40000000E+01 AA.
  Species C                   : Basic radial grid will be enhanced according to radial_multiplier =   2, to contain    69 grid points.
 
  Finished reading input file 'control.in'. Consistency checks are next.
 
  MPI_IN_PLACE appears to work with this MPI implementation.
  | Keeping use_mpi_in_place .true. (see manual).
  Target number of points in a grid batch is not set. Defaulting to  100
  Method for grid partitioning is not set. Defaulting to parallel hash+maxmin partitioning.
  Batch size limit is not set. Defaulting to    200
  By default, will store active basis functions for each batch.
  If in need of memory, prune_basis_once .false. can be used to disable this option.
  communication_type for Hartree potential was not specified.
  Defaulting to calc_hartree .
  Pulay mixer: Number of initial linear mixing iterations not set.
  Defaulting to    0 iterations.
  Work space size for distributed Hartree potential not set.
  Defaulting to   0.200000E+03 MB.
  Algorithm-dependent basis array size parameters:
  | n_max_pulay                         :        5
  Presetting      1001 iterations before the initial mixing cycle
  is restarted anyway using the sc_init_iter criterion / keyword.
  Presetting a factor      1.000 between actual scf density residual
  and density convergence criterion sc_accuracy_rho below which sc_init_iter
  takes no effect.
  Calculation of forces was not defined in control.in. No forces will be calculated.
  Geometry relaxation not requested: no relaxation will be performed.
  No accuracy limit for integral partition fn. given. Defaulting to  0.1000E-14.
  No threshold value for u(r) in integrations given. Defaulting to  0.1000E-05.
  No accuracy for occupation numbers given. Defaulting to  0.1000E-12.
  No threshold value for occupation numbers given. Defaulting to  0.0000E+00.
  No accuracy for fermi level given. Defaulting to  0.1000E-19.
  Maximum # of iterations to find E_F not set. Defaulting to  200.
  Will not use alltoall communication since running on < 1024 CPUs.
  partition_type (choice of integration weights) for integrals was not specified.
  | Using a version of the partition function of Stratmann and coworkers ('stratmann_sparse').
  | At each grid point, the set of atoms used to build the partition table is smoothly restricted to
  | only those atoms whose free-atom density would be non-zero at that grid point.
  Partitioning for Hartree potential was not defined. Using partition_type for integrals.
  | Adjusted default value of keyword multip_moments_threshold to:       0.10000000E-11
  | This value may affect high angular momentum components of the Hartree potential in periodic systems.
  No q(lm)/r^(l+1) cutoff set for long-range Hartree potential.
  | Using default value of  0.100000E-09 .
  | Verify using the multipole_threshold keyword.
  Defaulting to new monopole extrapolation.
  Density update method: automatic selection selected.
 * Warning: use_local_index and/or load_balancing needs packed_matrix_format = index
 * Changing the default setting to packed_matrix_format = index
------------------------------------------------------------


------------------------------------------------------------
          Reading geometry description geometry.in.
------------------------------------------------------------
  Input structure read successfully.
  The structure contains       36 atoms,  and a total of        146.000 electrons.

  Input geometry:
  | No unit cell requested.
  | Atomic structure:
  |       Atom                x [A]            y [A]            z [A]
  |    1: Species H            12.58827000       26.97886900       44.89913200
  |    2: Species C            13.32903600       26.79071500       45.67214000
  |    3: Species C            13.53659000       25.49833700       46.16799900
  |    4: Species C            14.07825600       27.86354000       46.20341700
  |    5: Species H            12.95138800       24.66878700       45.77290600
  |    6: Species C            14.49842700       25.27225800       47.15971700
  |    7: Species C            13.87070200       29.17164100       45.70755900
  |    8: Species C            15.03503100       27.63746000       47.19513500
  |    9: Species H            14.65783900       24.26458200       47.53958000
  |   10: Species C            15.24258500       26.33395700       47.67328500
  |   11: Species H            13.11044600       29.31296200       44.94535300
  |   12: Species C            14.61992200       30.24446600       46.23883600
  |   13: Species C            15.78425100       28.69915900       47.70870300
  |   14: Species H            15.99565300       26.16172100       48.44009500
  |   15: Species C            14.42249300       31.56369400       45.76068600
  |   16: Species C            15.57669700       30.00266200       47.23055300
  |   17: Species H            16.53038400       28.46585100       48.45939800
  |   18: Species C            13.46065600       31.82122200       44.76896900
  |   19: Species C            15.17677500       32.62079400       46.29196400
  |   20: Species C            16.33098000       31.05976200       47.76183100
  |   21: Species H            12.85054700       31.02612300       44.35262400
  |   22: Species C            13.27335100       33.10900100       44.29081900
  |   23: Species C            14.98440800       33.92429700       45.81381400
  |   24: Species C            16.13355000       32.36326500       47.28368100
  |   25: Species C            17.26244300       30.80223400       48.75354800
  |   26: Species H            12.52185200       33.30174400       43.52436300
  |   27: Species C            14.02763300       34.16610100       44.82209600
  |   28: Species H            15.57745600       34.75636800       46.17437400
  |   29: Species C            16.89795700       33.42036600       47.81495900
  |   30: Species H            17.44053500       29.80506400       49.13837000
  |   31: Species C            18.03697500       31.84361000       49.28482600
  |   32: Species H            13.88047200       35.18188700       44.45339000
  |   33: Species H            16.80354600       34.44280600       47.46785700
  |   34: Species C            17.85473200       33.14711300       48.80667600
  |   35: Species H            18.78290500       31.63741600       50.05039600
  |   36: Species H            18.46575200       33.95968900       49.20053000
  |

  | The smallest distance between any two atoms is         1.08353661 AA.
  |
  | The first atom of this pair is atom number                     23 .
  | The second atom of this pair is atom number                    28 .

  Number of empty states per atom not set in control.in - providing a guess from actual geometry.
  | Total number of empty states used during s.c.f. cycle:       87
  If you use a very high smearing, use empty_states (per atom!) in control.in to increase this value.

  Structure-dependent array size parameters: 
  | Maximum number of distinct radial functions  :       18
  | Maximum number of basis functions            :     1068
  | Number of Kohn-Sham states (occupied + empty):      160
------------------------------------------------------------

------------------------------------------------------------
          Preparing all fixed parts of the calculation.
------------------------------------------------------------
  Determining machine precision:
    2.225073858507201E-308
  Setting up grids for atomic and cluster calculations.

  Creating wave function, potential, and density for free atoms.

  Species: H

  List of occupied orbitals and eigenvalues:
    n    l              occ      energy [Ha]    energy [eV]
    1    0           1.0000        -0.238386        -6.4868


  Species: C

  List of occupied orbitals and eigenvalues:
    n    l              occ      energy [Ha]    energy [eV]
    1    0           2.0000       -10.049212      -273.4530
    2    0           2.0000        -0.504761       -13.7352
    2    1           2.0000        -0.193631        -5.2690

  Creating fixed part of basis set: Ionic, confined, hydrogenic.
 
  H                    hydrogenic:
 
  List of hydrogenic basis orbitals: 
    n    l      effective z      eigenvalue [eV]  inner max. [A]     outer max. [A]     outer radius [A]   
    2    0         2.100000       -14.9965           0.193243           1.317208           5.373006
    2    1         3.500000       -41.6672           0.602369           0.602369           4.056063
    1    0         0.850000        -9.8292           0.624871           0.624871           5.373006
    2    1         3.700000       -46.5653           0.573622           0.573622           3.910002
    2    0         1.200000        -4.5995           0.334980           2.228188           5.505995
    3    2         7.000000       -74.0753           0.680699           0.680699           3.769201
 
 
  C                    hydrogenic:
 
  List of hydrogenic basis orbitals: 
    n    l      effective z      eigenvalue [eV]  inner max. [A]     outer max. [A]     outer radius [A]   
    2    1         1.700000        -9.8152           1.245706           1.245706           5.401630
    3    2         6.000000       -54.4226           0.792453           0.792453           4.178599
    2    0         4.900000       -81.6681           0.082559           0.562749           3.353238
    4    3         9.800000       -81.6681           0.863254           0.863254           4.028125
    3    1         5.200000       -40.8774           0.305389           1.215618           4.898362
    3    0         4.300000       -27.9508           0.091041           1.610311           5.401630
    5    4        14.400000      -112.8510           0.917666           0.917666           3.883070
    3    2         6.200000       -58.1113           0.763917           0.763917           4.077671
 

  Adding cutoff potential to free-atom effective potential.
  Creating atomic-like basis functions for current effective potential.

  Species H                   :

  List of atomic basis orbitals and eigenvalues:
    n    l      energy [Ha]    energy [eV]    outer radius [A]
    1    0        -0.238386        -6.4868       5.373006


  Species C                   :

  List of atomic basis orbitals and eigenvalues:
    n    l      energy [Ha]    energy [eV]    outer radius [A]
    1    0       -10.049212      -273.4530       1.934409
    2    0        -0.504761       -13.7352       5.271162
    2    1        -0.193631        -5.2690       5.401630

  Assembling full basis from fixed parts.
  | Species H :   atomic orbital   1 s accepted.
  | Species H :    hydro orbital   2 s accepted.
  | Species H :    hydro orbital   1 s accepted.
  | Species H :    hydro orbital   2 s accepted.
  | Species H :    hydro orbital   2 p accepted.
  | Species H :    hydro orbital   2 p accepted.
  | Species H :    hydro orbital   3 d accepted.
  | Species C :   atomic orbital   1 s accepted.
  | Species C :    hydro orbital   2 s accepted.
  | Species C :   atomic orbital   2 s accepted.
  | Species C :    hydro orbital   3 s accepted.
  | Species C :    hydro orbital   3 p accepted.
  | Species C :   atomic orbital   2 p accepted.
  | Species C :    hydro orbital   2 p accepted.
  | Species C :    hydro orbital   3 d accepted.
  | Species C :    hydro orbital   3 d accepted.
  | Species C :    hydro orbital   4 f accepted.
  | Species C :    hydro orbital   5 g accepted.
 
  Basis size parameters after reduction:
  | Total number of radial functions:       18
  | Total number of basis functions :     1068
 
  Per-task memory consumption for arrays in subroutine allocate_ext:
  |           4.438696MB.
  Testing on-site integration grid accuracy.
  |  Species  Function  <phi|h_atom|phi> (log., in eV)  <phi|h_atom|phi> (rad., in eV)
           1        1                 -6.4870767962                 -6.4871688290
           1        2                 13.5032046589                 13.5028982997
           1        3                 32.8195184817                 32.8119941656
           1        4                 33.8513856511                 33.7670005767 ***
           1        5                 28.8544614965                 28.8544615203
           1        6                 59.6326952547                 59.6327656460
           1        7                 60.2719308513                 60.2719305949
           2        8               -273.4529726040               -273.4529710464
           2        9                -10.7721037319                -10.7721022101
           2       10                 17.6044132601                 17.6044162063
           2       11                 53.7706460658                 53.7706913770
           2       12                 15.0973290362                 15.0973256030
           2       13                  3.8545134692                  3.8545724687
           2       14                 12.1156992592                 12.1182024431
           2       15                 29.4352039302                 29.4352041816
           2       16                 54.8741144708                 54.8740268729
           2       17                 59.3556032049                 59.3556031382
           2       18                 93.4551837154                 93.4551838009
 * Note: Onsite integrals marked "***" above are less accurate than
 * onsite_accuracy_threshold =    0.03000 eV. Usually, this is harmless.
 * When in doubt, tighten the "radial" and/or "radial_multiplier" flags to check.

  Preparing densities etc. for the partition functions (integrals / Hartree potential).

  Preparations completed.
  max(cpu_time)          :      0.196 s.
  Wall clock time (cpu1) :      0.185 s.
------------------------------------------------------------

------------------------------------------------------------
          Begin self-consistency loop: Initialization.

          Date     :  20210620, Time     :  174554.303
------------------------------------------------------------

  Initializing index lists of integration centers etc. from given atomic structure:
  | Number of centers in hartree potential         :        36
  | Number of centers in hartree multipole         :        36
  | Number of centers in electron density summation:        36
  | Number of centers in basis integrals           :        36
  | Number of centers in integrals                 :        36
  | Number of centers in hamiltonian               :        36
  * Using 56 tasks for Scalapack Eigenvalue solver.
  Detailed listing of tasks and assigned k-points:
  (for non-periodic systems, the "k-point" denotes an internal label only)
   Task     0 k-point     1 on d021
   Task     1 k-point     1 on d021
   Task     2 k-point     1 on d021
   Task     3 k-point     1 on d021
   Task     4 k-point     1 on d021
   Task     5 k-point     1 on d021
   Task     6 k-point     1 on d021
   Task     7 k-point     1 on d021
   Task     8 k-point     1 on d021
   Task     9 k-point     1 on d021
   Task    10 k-point     1 on d021
   Task    11 k-point     1 on d021
   Task    12 k-point     1 on d021
   Task    13 k-point     1 on d021
   Task    14 k-point     1 on d021
   Task    15 k-point     1 on d021
   Task    16 k-point     1 on d021
   Task    17 k-point     1 on d021
   Task    18 k-point     1 on d021
   Task    19 k-point     1 on d021
   Task    20 k-point     1 on d021
   Task    21 k-point     1 on d021
   Task    22 k-point     1 on d021
   Task    23 k-point     1 on d021
   Task    24 k-point     1 on d021
   Task    25 k-point     1 on d021
   Task    26 k-point     1 on d021
   Task    27 k-point     1 on d021
   Task    28 k-point     1 on d021
   Task    29 k-point     1 on d021
   Task    30 k-point     1 on d021
   Task    31 k-point     1 on d021
   Task    32 k-point     1 on d021
   Task    33 k-point     1 on d021
   Task    34 k-point     1 on d021
   Task    35 k-point     1 on d021
   Task    36 k-point     1 on d021
   Task    37 k-point     1 on d021
   Task    38 k-point     1 on d021
   Task    39 k-point     1 on d021
   Task    40 k-point     1 on d021
   Task    41 k-point     1 on d021
   Task    42 k-point     1 on d021
   Task    43 k-point     1 on d021
   Task    44 k-point     1 on d021
   Task    45 k-point     1 on d021
   Task    46 k-point     1 on d021
   Task    47 k-point     1 on d021
   Task    48 k-point     1 on d021
   Task    49 k-point     1 on d021
   Task    50 k-point     1 on d021
   Task    51 k-point     1 on d021
   Task    52 k-point     1 on d021
   Task    53 k-point     1 on d021
   Task    54 k-point     1 on d021
   Task    55 k-point     1 on d021
  Tasks:    56 split into      8 X      7 BLACS grid
  Calculating block size based on n_basis =         1068 max_nprow =            8 max_npcol =            7
  ScaLAPACK block size set to:           16
  Allocating        0.184 MB for ovlp
  Allocating        0.184 MB for ham
  Allocating        0.184 MB for eigenvec
  Required Scalapack workspace - INTEGER:            1 REAL:             1
  Partitioning the integration grid into batches with parallel hashing+maxmin method.
  | Number of batches:     5520
  | Maximal batch size:     199
  | Minimal batch size:       4
  | Average batch size:     108.699
  | Standard deviation of batch sizes:      31.176

  Integration load balanced across     56 MPI tasks.
  Work distribution over tasks is as follows:
  Task      0 has      10860 integration points.
  Task      1 has      10813 integration points.
  Task      2 has      10605 integration points.
  Task      3 has      10756 integration points.
  Task      4 has      10729 integration points.
  Task      5 has      10661 integration points.
  Task      6 has      10640 integration points.
  Task      7 has      10782 integration points.
  Task      8 has      10791 integration points.
  Task      9 has      10597 integration points.
  Task     10 has      10769 integration points.
  Task     11 has      10704 integration points.
  Task     12 has      10740 integration points.
  Task     13 has      10618 integration points.
  Task     14 has      10774 integration points.
  Task     15 has      10820 integration points.
  Task     16 has      10699 integration points.
  Task     17 has      10784 integration points.
  Task     18 has      10639 integration points.
  Task     19 has      10779 integration points.
  Task     20 has      10611 integration points.
  Task     21 has      10771 integration points.
  Task     22 has      10710 integration points.
  Task     23 has      10704 integration points.
  Task     24 has      10747 integration points.
  Task     25 has      10696 integration points.
  Task     26 has      10704 integration points.
  Task     27 has      10610 integration points.
  Task     28 has      10735 integration points.
  Task     29 has      10811 integration points.
  Task     30 has      10649 integration points.
  Task     31 has      10747 integration points.
  Task     32 has      10745 integration points.
  Task     33 has      10794 integration points.
  Task     34 has      10543 integration points.
  Task     35 has      10785 integration points.
  Task     36 has      10773 integration points.
  Task     37 has      10606 integration points.
  Task     38 has      10786 integration points.
  Task     39 has      10742 integration points.
  Task     40 has      10716 integration points.
  Task     41 has      10605 integration points.
  Task     42 has      10803 integration points.
  Task     43 has      10748 integration points.
  Task     44 has      10653 integration points.
  Task     45 has      10754 integration points.
  Task     46 has      10654 integration points.
  Task     47 has      10805 integration points.
  Task     48 has      10553 integration points.
  Task     49 has      10769 integration points.
  Task     50 has      10840 integration points.
  Task     51 has      10586 integration points.
  Task     52 has      10804 integration points.
  Task     53 has      10641 integration points.
  Task     54 has      10693 integration points.
  Task     55 has      10563 integration points.
  Initializing partition tables, free-atom densities, potentials, etc. across the integration grid (initialize_grid_storage).
  | initialize_grid_storage: Actual outermost partition radius vs. multipole_radius_free
  | (-- VB: in principle, multipole_radius_free should be larger, hence this output)
  | Species        1: Confinement radius =              6.000000000000000 AA, multipole_radius_free =              6.071692442739658 AA.
  | Species        1: outer_partition_radius set to              6.071692442739658 AA .
  | Species        2: Confinement radius =              6.000000000000000 AA, multipole_radius_free =              6.029870734432609 AA.
  | Species        2: outer_partition_radius set to              6.029870734432609 AA .
  | The sparse table of interatomic distances needs     15.2680 kbyte instead of    10.3680 kbyte of memory.
  | Using the partition_type stratmann_smoother will reduce your memory usage.
  | Net number of integration points:   600016
  | of which are non-zero points    :   484683
  Renormalizing the initial density to the exact electron count on the 3D integration grid.
  | Initial density: Formal number of electrons (from input files) :     146.0000000000
  | Integrated number of electrons on 3D grid     :     145.9999473247
  | Charge integration error                      :      -0.0000526753
  | Normalization factor for density and gradient :       1.0000003608
  Obtaining max. number of non-zero basis functions in each batch (get_n_compute_maxes).
  | Maximal number of non-zero basis functions:      876
  Selecting the method for density update.
  Loop over occupied states selected for charge density update.
  Hamiltonian matrix size:
  | Size of matrix non-packed:                570846
  | Size of matrix packed:          542598
  Allocating        1.367 MB for KS_eigenvector
  use_local_index: Max. local matrix size =       516555
  Task:     0 matrix size:     120775
  Task:     1 matrix size:     110685
  Task:     2 matrix size:     132867
  Task:     3 matrix size:     314036
  Task:     4 matrix size:     336551
  Task:     5 matrix size:     352755
  Task:     6 matrix size:     403687
  Task:     7 matrix size:     206823
  Task:     8 matrix size:     212114
  Task:     9 matrix size:     227815
  Task:    10 matrix size:     427951
  Task:    11 matrix size:     460237
  Task:    12 matrix size:     506094
  Task:    13 matrix size:     516555
  Task:    14 matrix size:     135460
  Task:    15 matrix size:     132870
  Task:    16 matrix size:     124243
  Task:    17 matrix size:     460417
  Task:    18 matrix size:     494208
  Task:    19 matrix size:     462171
  Task:    20 matrix size:     458731
  Task:    21 matrix size:     280947
  Task:    22 matrix size:     268839
  Task:    23 matrix size:     243225
  Task:    24 matrix size:     457484
  Task:    25 matrix size:     392036
  Task:    26 matrix size:     355041
  Task:    27 matrix size:     214068
  Task:    28 matrix size:     189360
  Task:    29 matrix size:     282609
  Task:    30 matrix size:     330092
  Task:    31 matrix size:     141246
  Task:    32 matrix size:      89676
  Task:    33 matrix size:     163306
  Task:    34 matrix size:     182710
  Task:    35 matrix size:     413183
  Task:    36 matrix size:     265326
  Task:    37 matrix size:     307542
  Task:    38 matrix size:     435546
  Task:    39 matrix size:     419094
  Task:    40 matrix size:     279727
  Task:    41 matrix size:     300843
  Task:    42 matrix size:     404522
  Task:    43 matrix size:     270113
  Task:    44 matrix size:     291458
  Task:    45 matrix size:     394049
  Task:    46 matrix size:     348630
  Task:    47 matrix size:     250656
  Task:    48 matrix size:     209490
  Task:    49 matrix size:     310521
  Task:    50 matrix size:     282842
  Task:    51 matrix size:     207690
  Task:    52 matrix size:     189420
  Task:    53 matrix size:     123753
  Task:    54 matrix size:     131841
  Task:    55 matrix size:      89253
  Integrating Hamiltonian matrix: batch-based integration.
  Time summed over all CPUs for integration: real work       90.332 s, elapsed      167.642 s
  Time get_set_sparse_local_matrix_scalapack:     0.010892 s
  Start compute_balanced_batch_distribution
  Done load balancing, time needed:      0.006 s
  Integrating overlap matrix with loadbalancing
  Time summed over all CPUs for integration: real work       24.744 s, elapsed       29.153 s
  Time get_set_full_local_matrix_scalapack:     0.011370 s

  Updating Kohn-Sham eigenvalues and eigenvectors using ELSI and the ELPA eigensolver.
  Overlap matrix is not singular
  | Lowest and highest eigenvalues :  0.11E+02,  0.80E-04
  Finished singularity check of overlap matrix
  | Time :     0.055 s
  Finished Cholesky decomposition
  | Time :     0.013 s
  Finished transformation to standard eigenproblem
  | Time :     0.008 s
  Starting ELPA eigensolver
  Finished solving standard eigenproblem
  | Time :     0.053 s
  Finished back-transformation of eigenvectors
  | Time :     0.002 s

  Obtaining occupation numbers and chemical potential using ELSI.
  | Chemical potential (Fermi level):    -8.49166956 eV
  Writing Kohn-Sham eigenvalues.

  State    Occupation    Eigenvalue [Ha]    Eigenvalue [eV]
      1       2.00000         -10.176379         -276.91336
      2       2.00000         -10.174912         -276.87344
      3       2.00000         -10.173949         -276.84724
      4       2.00000         -10.173797         -276.84309
      5       2.00000         -10.172871         -276.81790
      6       2.00000         -10.171430         -276.77869
      7       2.00000         -10.171233         -276.77332
      8       2.00000         -10.171143         -276.77088
      9       2.00000         -10.170495         -276.75326
     10       2.00000         -10.170287         -276.74758
     11       2.00000         -10.169630         -276.72972
     12       2.00000         -10.169210         -276.71830
     13       2.00000         -10.169164         -276.71703
     14       2.00000         -10.168813         -276.70748
     15       2.00000         -10.168409         -276.69649
     16       2.00000         -10.167737         -276.67820
     17       2.00000         -10.167561         -276.67342
     18       2.00000         -10.167324         -276.66696
     19       2.00000         -10.167321         -276.66689
     20       2.00000         -10.166808         -276.65292
     21       2.00000         -10.166599         -276.64724
     22       2.00000         -10.165406         -276.61477
     23       2.00000          -1.029797          -28.02221
     24       2.00000          -1.004475          -27.33314
     25       2.00000          -0.986130          -26.83397
     26       2.00000          -0.963669          -26.22278
     27       2.00000          -0.924995          -25.17039
     28       2.00000          -0.918873          -25.00380
     29       2.00000          -0.910563          -24.77767
     30       2.00000          -0.893032          -24.30065
     31       2.00000          -0.863221          -23.48943
     32       2.00000          -0.862206          -23.46182
     33       2.00000          -0.841943          -22.91043
     34       2.00000          -0.798635          -21.73195
     35       2.00000          -0.781803          -21.27396
     36       2.00000          -0.775296          -21.09688
     37       2.00000          -0.746955          -20.32568
     38       2.00000          -0.736764          -20.04838
     39       2.00000          -0.731901          -19.91605
     40       2.00000          -0.709498          -19.30643
     41       2.00000          -0.688783          -18.74273
     42       2.00000          -0.667904          -18.17460
     43       2.00000          -0.659036          -17.93328
     44       2.00000          -0.642361          -17.47952
     45       2.00000          -0.632260          -17.20467
     46       2.00000          -0.618340          -16.82589
     47       2.00000          -0.608725          -16.56425
     48       2.00000          -0.607342          -16.52661
     49       2.00000          -0.592762          -16.12987
     50       2.00000          -0.586314          -15.95441
     51       2.00000          -0.578223          -15.73424
     52       2.00000          -0.576420          -15.68519
     53       2.00000          -0.567465          -15.44150
     54       2.00000          -0.566426          -15.41324
     55       2.00000          -0.550034          -14.96718
     56       2.00000          -0.547154          -14.88881
     57       2.00000          -0.539329          -14.67590
     58       2.00000          -0.519661          -14.14070
     59       2.00000          -0.517858          -14.09164
     60       2.00000          -0.516337          -14.05025
     61       2.00000          -0.508514          -13.83736
     62       2.00000          -0.504529          -13.72893
     63       2.00000          -0.496512          -13.51078
     64       2.00000          -0.489206          -13.31198
     65       2.00000          -0.488620          -13.29603
     66       2.00000          -0.472480          -12.85684
     67       2.00000          -0.435464          -11.84959
     68       2.00000          -0.433540          -11.79722
     69       2.00000          -0.421760          -11.47667
     70       2.00000          -0.408490          -11.11558
     71       2.00000          -0.378464          -10.29852
     72       2.00000          -0.374286          -10.18483
     73       2.00000          -0.351912           -9.57600
     74       0.00000          -0.261714           -7.12160
     75       0.00000          -0.238959           -6.50242
     76       0.00000          -0.237825           -6.47156
     77       0.00000          -0.203047           -5.52519
     78       0.00000          -0.186967           -5.08763
     79       0.00000          -0.175099           -4.76470
     80       0.00000          -0.168806           -4.59345
     81       0.00000          -0.112144           -3.05159
     82       0.00000          -0.078511           -2.13639
     83       0.00000          -0.071018           -1.93251
     84       0.00000          -0.070114           -1.90790
     85       0.00000          -0.067160           -1.82751
     86       0.00000          -0.052593           -1.43113
     87       0.00000          -0.045380           -1.23485
     88       0.00000          -0.044303           -1.20555
     89       0.00000          -0.033579           -0.91373
     90       0.00000          -0.020502           -0.55787
     91       0.00000          -0.014025           -0.38165
     92       0.00000          -0.011178           -0.30418
     93       0.00000          -0.005660           -0.15403
     94       0.00000          -0.005081           -0.13827
     95       0.00000           0.002336            0.06356
     96       0.00000           0.003787            0.10304
     97       0.00000           0.011399            0.31019
     98       0.00000           0.011633            0.31655
     99       0.00000           0.013565            0.36913
    100       0.00000           0.018866            0.51337
    101       0.00000           0.020963            0.57044
    102       0.00000           0.032823            0.89317
    103       0.00000           0.033963            0.92418
    104       0.00000           0.042987            1.16972
    105       0.00000           0.044587            1.21327
    106       0.00000           0.050322            1.36933
    107       0.00000           0.053353            1.45182
    108       0.00000           0.057519            1.56517
    109       0.00000           0.061565            1.67527
    110       0.00000           0.062280            1.69472
    111       0.00000           0.069653            1.89535
    112       0.00000           0.069942            1.90322
    113       0.00000           0.072518            1.97332
    114       0.00000           0.073923            2.01154
    115       0.00000           0.078116            2.12564
    116       0.00000           0.080831            2.19951
    117       0.00000           0.086266            2.34741
    118       0.00000           0.089900            2.44631
    119       0.00000           0.097703            2.65864
    120       0.00000           0.102942            2.80120
    121       0.00000           0.104415            2.84128
    122       0.00000           0.106862            2.90787
    123       0.00000           0.107519            2.92575
    124       0.00000           0.110567            3.00869
    125       0.00000           0.113682            3.09344
    126       0.00000           0.114318            3.11074
    127       0.00000           0.121072            3.29452
    128       0.00000           0.126364            3.43854
    129       0.00000           0.129412            3.52147
    130       0.00000           0.130051            3.53886
    131       0.00000           0.145687            3.96435
    132       0.00000           0.147663            4.01811
    133       0.00000           0.151618            4.12574
    134       0.00000           0.156698            4.26398
    135       0.00000           0.159598            4.34287
    136       0.00000           0.167321            4.55305
    137       0.00000           0.171915            4.67804
    138       0.00000           0.174023            4.73540
    139       0.00000           0.175287            4.76979
    140       0.00000           0.178732            4.86355
    141       0.00000           0.182791            4.97400
    142       0.00000           0.184449            5.01911
    143       0.00000           0.185832            5.05674
    144       0.00000           0.191812            5.21946
    145       0.00000           0.200019            5.44279
    146       0.00000           0.200768            5.46318
    147       0.00000           0.206820            5.62786
    148       0.00000           0.209799            5.70893
    149       0.00000           0.212408            5.77991
    150       0.00000           0.213829            5.81857
    151       0.00000           0.218842            5.95499
    152       0.00000           0.226099            6.15247
    153       0.00000           0.230592            6.27474
    154       0.00000           0.230835            6.28134
    155       0.00000           0.235873            6.41844
    156       0.00000           0.244052            6.64098
    157       0.00000           0.245520            6.68094
    158       0.00000           0.250321            6.81158
    159       0.00000           0.257263            7.00049
    160       0.00000           0.258600            7.03686

  Highest occupied state (VBM) at     -9.57600059 eV
  | Occupation number:      2.00000000

  Lowest unoccupied state (CBM) at    -7.12160032 eV
  | Occupation number:      0.00000000

  Overall HOMO-LUMO gap:      2.45440027 eV.
  Calculating total energy contributions from superposition of free atom densities.

  Total energy components:
  | Sum of eigenvalues            :        -513.53348868 Ha      -13973.95721404 eV
  | XC energy correction          :        -121.56765294 Ha       -3308.02414681 eV
  | XC potential correction       :         156.15539887 Ha        4249.20460047 eV
  | Free-atom electrostatic energy:        -368.53910257 Ha      -10028.45922334 eV
  | Hartree energy correction     :           0.00000000 Ha           0.00000000 eV
  | Entropy correction            :           0.00000000 Ha           0.00000000 eV
  | ---------------------------
  | Total energy                  :        -847.48484531 Ha      -23061.23598372 eV
  | Total energy, T -> 0          :        -847.48484531 Ha      -23061.23598372 eV  <-- do not rely on this value for anything but (periodic) metals
  | Electronic free energy        :        -847.48484531 Ha      -23061.23598372 eV

  Derived energy quantities:
  | Kinetic energy                :         839.54199214 Ha       22845.09995202 eV
  | Electrostatic energy          :       -1565.45918452 Ha      -42598.31178893 eV
  | Energy correction for multipole
  | error in Hartree potential    :           0.00000000 Ha           0.00000000 eV
  | Sum of eigenvalues per atom                           :        -388.16547817 eV
  | Total energy (T->0) per atom                          :        -640.58988844 eV  <-- do not rely on this value for anything but (periodic) metals
  | Electronic free energy per atom                       :        -640.58988844 eV
  Initialize hartree_potential_storage
  Max. number of atoms included in rho_multipole:           36

  End scf initialization - timings             :  max(cpu_time)    wall_clock(cpu1)
  | Time for scf. initialization               :        4.802 s           4.858 s
  | Boundary condition initialization          :        0.000 s           0.003 s
  | Integration                                :        3.555 s           3.561 s
  | Solution of K.-S. eqns.                    :        0.139 s           0.155 s
  | Grid partitioning                          :        0.600 s           0.604 s
  | Preloading free-atom quantities on grid    :        0.014 s           0.016 s
  | Free-atom superposition energy             :        0.043 s           0.044 s
  | Total energy evaluation                    :        0.001 s           0.004 s

  Partial memory accounting:
  | Current value for overall tracked memory usage on task 0  :           2.404 MB
  | Peak value for overall tracked memory usage on task 0     :          22.081 MB after allocating zora_vector2
  | Largest tracked array allocation on task 0 so far         :           6.139 MB  when allocating hamiltonian_shell
  Note:  These values currently only include a subset of arrays which are explicitly tracked.
  The "true" memory usage will be greater.
------------------------------------------------------------

------------------------------------------------------------
          Begin self-consistency iteration #    1

  Date     :  20210620, Time     :  174559.164
------------------------------------------------------------
  Evaluating new KS density.
  Integration grid: deviation in total charge (<rho> - N_e) =   0.000000E+00
  Pulay mixing of updated and previous charge densities.

  Evaluating partitioned Hartree potential by multipole expansion.
  | Analytical far-field extrapolation by fixed multipoles:
  | Hartree multipole sum: apparent total charge =  -0.592199E-04
  Summing up the Hartree potential with load balancing.
  Time summed over all CPUs for potential: real work       15.020 s, elapsed       24.443 s
  | RMS charge density error from multipole expansion :   0.117553E-01

  Start compute_balanced_batch_distribution
  Done load balancing, time needed:      0.005 s
  Integrating Hamiltonian matrix: batch-based integration with load balancing
  Time summed over all CPUs for integration: real work       98.755 s, elapsed      111.123 s
  Time get_set_full_local_matrix_scalapack:     0.011338 s
  Start compute_balanced_batch_distribution
  Done load balancing, time needed:      0.005 s

  Updating Kohn-Sham eigenvalues and eigenvectors using ELSI and the ELPA eigensolver.
  Finished transformation to standard eigenproblem
  | Time :     0.009 s
  Starting ELPA eigensolver
  Finished solving standard eigenproblem
  | Time :     0.051 s
  Finished back-transformation of eigenvectors
  | Time :     0.003 s

  Obtaining occupation numbers and chemical potential using ELSI.
  | Chemical potential (Fermi level):    -3.82968199 eV
  Writing Kohn-Sham eigenvalues.

  State    Occupation    Eigenvalue [Ha]    Eigenvalue [eV]
      1       2.00000          -9.971836         -271.34748
      2       2.00000          -9.968192         -271.24829
      3       2.00000          -9.967102         -271.21864
      4       2.00000          -9.965939         -271.18701
      5       2.00000          -9.964901         -271.15876
      6       2.00000          -9.962149         -271.08387
      7       2.00000          -9.961912         -271.07741
      8       2.00000          -9.961802         -271.07444
      9       2.00000          -9.957665         -270.96185
     10       2.00000          -9.954132         -270.86572
     11       2.00000          -9.954051         -270.86352
     12       2.00000          -9.952206         -270.81331
     13       2.00000          -9.951561         -270.79574
     14       2.00000          -9.950270         -270.76062
     15       2.00000          -9.950171         -270.75793
     16       2.00000          -9.949792         -270.74762
     17       2.00000          -9.949647         -270.74366
     18       2.00000          -9.948199         -270.70427
     19       2.00000          -9.948174         -270.70358
     20       2.00000          -9.948110         -270.70185
     21       2.00000          -9.948050         -270.70021
     22       2.00000          -9.947069         -270.67351
     23       2.00000          -0.877276          -23.87189
     24       2.00000          -0.848819          -23.09753
     25       2.00000          -0.830258          -22.59247
     26       2.00000          -0.810175          -22.04598
     27       2.00000          -0.773110          -21.03738
     28       2.00000          -0.771616          -20.99675
     29       2.00000          -0.759045          -20.65467
     30       2.00000          -0.743764          -20.23885
     31       2.00000          -0.712916          -19.39943
     32       2.00000          -0.711141          -19.35113
     33       2.00000          -0.693045          -18.85870
     34       2.00000          -0.654912          -17.82107
     35       2.00000          -0.635604          -17.29568
     36       2.00000          -0.625958          -17.03319
     37       2.00000          -0.605000          -16.46289
     38       2.00000          -0.598325          -16.28124
     39       2.00000          -0.592327          -16.11803
     40       2.00000          -0.564641          -15.36466
     41       2.00000          -0.550012          -14.96660
     42       2.00000          -0.522611          -14.22097
     43       2.00000          -0.522138          -14.20811
     44       2.00000          -0.502555          -13.67522
     45       2.00000          -0.493155          -13.41942
     46       2.00000          -0.488125          -13.28255
     47       2.00000          -0.475529          -12.93980
     48       2.00000          -0.470278          -12.79692
     49       2.00000          -0.452095          -12.30213
     50       2.00000          -0.444726          -12.10161
     51       2.00000          -0.438930          -11.94388
     52       2.00000          -0.436724          -11.88387
     53       2.00000          -0.433596          -11.79875
     54       2.00000          -0.423824          -11.53283
     55       2.00000          -0.421021          -11.45658
     56       2.00000          -0.417145          -11.35110
     57       2.00000          -0.404235          -10.99979
     58       2.00000          -0.390362          -10.62230
     59       2.00000          -0.385804          -10.49825
     60       2.00000          -0.383085          -10.42427
     61       2.00000          -0.369636          -10.05832
     62       2.00000          -0.368455          -10.02617
     63       2.00000          -0.366945           -9.98508
     64       2.00000          -0.347948           -9.46815
     65       2.00000          -0.346769           -9.43605
     66       2.00000          -0.342783           -9.32759
     67       2.00000          -0.310458           -8.44799
     68       2.00000          -0.307177           -8.35870
     69       2.00000          -0.293834           -7.99562
     70       2.00000          -0.281506           -7.66018
     71       2.00000          -0.250529           -6.81724
     72       2.00000          -0.245092           -6.66930
     73       2.00000          -0.224865           -6.11889
     74       0.00000          -0.137011           -3.72826
     75       0.00000          -0.115760           -3.14999
     76       0.00000          -0.110256           -3.00022
     77       0.00000          -0.078691           -2.14128
     78       0.00000          -0.061062           -1.66159
     79       0.00000          -0.054310           -1.47786
     80       0.00000          -0.042416           -1.15420
     81       0.00000          -0.028174           -0.76666
     82       0.00000          -0.026449           -0.71970
     83       0.00000          -0.023638           -0.64323
     84       0.00000          -0.010345           -0.28150
     85       0.00000          -0.007329           -0.19942
     86       0.00000           0.007424            0.20202
     87       0.00000           0.012319            0.33521
     88       0.00000           0.016206            0.44098
     89       0.00000           0.027431            0.74643
     90       0.00000           0.029430            0.80082
     91       0.00000           0.042230            1.14913
     92       0.00000           0.047859            1.30231
     93       0.00000           0.053010            1.44248
     94       0.00000           0.055811            1.51869
     95       0.00000           0.065001            1.76877
     96       0.00000           0.071798            1.95373
     97       0.00000           0.072822            1.98159
     98       0.00000           0.087637            2.38472
     99       0.00000           0.089049            2.42315
    100       0.00000           0.092758            2.52406
    101       0.00000           0.098122            2.67003
    102       0.00000           0.108622            2.95575
    103       0.00000           0.111794            3.04208
    104       0.00000           0.116735            3.17653
    105       0.00000           0.118782            3.23221
    106       0.00000           0.123617            3.36380
    107       0.00000           0.127376            3.46608
    108       0.00000           0.131832            3.58732
    109       0.00000           0.132717            3.61142
    110       0.00000           0.135516            3.68757
    111       0.00000           0.136078            3.70286
    112       0.00000           0.143449            3.90344
    113       0.00000           0.144385            3.92891
    114       0.00000           0.152070            4.13804
    115       0.00000           0.152656            4.15398
    116       0.00000           0.154369            4.20060
    117       0.00000           0.157016            4.27262
    118       0.00000           0.159316            4.33522
    119       0.00000           0.163189            4.44060
    120       0.00000           0.171018            4.65363
    121       0.00000           0.174355            4.74445
    122       0.00000           0.179221            4.87684
    123       0.00000           0.180192            4.90329
    124       0.00000           0.183374            4.98987
    125       0.00000           0.189033            5.14384
    126       0.00000           0.195239            5.31273
    127       0.00000           0.195856            5.32952
    128       0.00000           0.203254            5.53083
    129       0.00000           0.204887            5.57527
    130       0.00000           0.209493            5.70060
    131       0.00000           0.211931            5.76693
    132       0.00000           0.212755            5.78935
    133       0.00000           0.215224            5.85654
    134       0.00000           0.221829            6.03627
    135       0.00000           0.225347            6.13201
    136       0.00000           0.227675            6.19535
    137       0.00000           0.233321            6.34898
    138       0.00000           0.237193            6.45434
    139       0.00000           0.239462            6.51609
    140       0.00000           0.239695            6.52243
    141       0.00000           0.242494            6.59860
    142       0.00000           0.257221            6.99933
    143       0.00000           0.259820            7.07006
    144       0.00000           0.274020            7.45647
    145       0.00000           0.276468            7.52307
    146       0.00000           0.279984            7.61875
    147       0.00000           0.287984            7.83645
    148       0.00000           0.290995            7.91837
    149       0.00000           0.295028            8.02811
    150       0.00000           0.295640            8.04478
    151       0.00000           0.298905            8.13362
    152       0.00000           0.301098            8.19329
    153       0.00000           0.304975            8.29881
    154       0.00000           0.312639            8.50733
    155       0.00000           0.318970            8.67963
    156       0.00000           0.323675            8.80764
    157       0.00000           0.333812            9.08349
    158       0.00000           0.335442            9.12785
    159       0.00000           0.336244            9.14966
    160       0.00000           0.342758            9.32693

  Highest occupied state (VBM) at     -6.11888875 eV
  | Occupation number:      2.00000000

  Lowest unoccupied state (CBM) at    -3.72825813 eV
  | Occupation number:      0.00000000

  Overall HOMO-LUMO gap:      2.39063063 eV.

  Total energy components:
  | Sum of eigenvalues            :        -489.90561414 Ha      -13331.01003499 eV
  | XC energy correction          :        -123.14698047 Ha       -3350.99983567 eV
  | XC potential correction       :         158.20569234 Ha        4304.99592434 eV
  | Free-atom electrostatic energy:        -368.53910257 Ha      -10028.45922334 eV
  | Hartree energy correction     :         -23.33567854 Ha        -634.99612139 eV
  | Entropy correction            :           0.00000000 Ha           0.00000000 eV
  | ---------------------------
  | Total energy                  :        -846.72168338 Ha      -23040.46929104 eV
  | Total energy, T -> 0          :        -846.72168338 Ha      -23040.46929104 eV  <-- do not rely on this value for anything but (periodic) metals
  | Electronic free energy        :        -846.72168338 Ha      -23040.46929104 eV

  Derived energy quantities:
  | Kinetic energy                :         846.65861231 Ha       23038.75303984 eV
  | Electrostatic energy          :       -1570.23331522 Ha      -42728.22249522 eV
  | Energy correction for multipole
  | error in Hartree potential    :          -0.05453110 Ha          -1.48386684 eV
  | Sum of eigenvalues per atom                           :        -370.30583431 eV
  | Total energy (T->0) per atom                          :        -640.01303586 eV  <-- do not rely on this value for anything but (periodic) metals
  | Electronic free energy per atom                       :        -640.01303586 eV

  Self-consistency convergence accuracy:
  | Change of charge density      :  0.9373E+00
  | Change of sum of eigenvalues  :  0.6429E+03 eV
  | Change of total energy        :  0.2077E+02 eV

  End self-consistency iteration #     1       :  max(cpu_time)    wall_clock(cpu1)
  | Time for this iteration                    :        3.287 s           3.295 s
  | Charge density update                      :        0.738 s           0.740 s
  | Density mixing                             :        0.002 s           0.003 s
  | Hartree multipole update                   :        0.008 s           0.009 s
  | Hartree multipole summation                :        0.444 s           0.446 s
  | Integration                                :        1.989 s           1.990 s
  | Solution of K.-S. eqns.                    :        0.093 s           0.093 s
  | Total energy evaluation                    :        0.000 s           0.000 s

  Partial memory accounting:
  | Current value for overall tracked memory usage on task 0  :           2.404 MB
  | Peak value for overall tracked memory usage on task 0     :          22.510 MB after allocating zora_vector2
  | Largest tracked array allocation on task 0 so far         :           6.139 MB  when allocating hamiltonian_shell
  Note:  These values currently only include a subset of arrays which are explicitly tracked.
  The "true" memory usage will be greater.
------------------------------------------------------------

------------------------------------------------------------
          Begin self-consistency iteration #    2

  Date     :  20210620, Time     :  174602.460
------------------------------------------------------------
  Evaluating new KS density.
  Integration grid: deviation in total charge (<rho> - N_e) =   5.684342E-14
  Pulay mixing of updated and previous charge densities.

  Evaluating partitioned Hartree potential by multipole expansion.
  | Analytical far-field extrapolation by fixed multipoles:
  | Hartree multipole sum: apparent total charge =  -0.590640E-04
  Summing up the Hartree potential with load balancing.
  Time summed over all CPUs for potential: real work       15.033 s, elapsed       17.541 s
  | RMS charge density error from multipole expansion :   0.208138E-01

  Integrating Hamiltonian matrix: batch-based integration with load balancing
  Time summed over all CPUs for integration: real work      100.050 s, elapsed      104.281 s
  Time get_set_full_local_matrix_scalapack:     0.016471 s

  Updating Kohn-Sham eigenvalues and eigenvectors using ELSI and the ELPA eigensolver.
  Finished transformation to standard eigenproblem
  | Time :     0.009 s
  Starting ELPA eigensolver
  Finished solving standard eigenproblem
  | Time :     0.052 s
  Finished back-transformation of eigenvectors
  | Time :     0.003 s

  Obtaining occupation numbers and chemical potential using ELSI.
  | Chemical potential (Fermi level):    -3.10982818 eV
  Highest occupied state (VBM) at     -5.05560775 eV
  | Occupation number:      2.00000000

  Lowest unoccupied state (CBM) at    -2.67304283 eV
  | Occupation number:      0.00000000

  Overall HOMO-LUMO gap:      2.38256493 eV.

  Checking to see if s.c.f. parameters should be adjusted.

  Total energy components:
  | Sum of eigenvalues            :        -482.37448290 Ha      -13126.07752710 eV
  | XC energy correction          :        -123.85821316 Ha       -3370.35346191 eV
  | XC potential correction       :         159.12028789 Ha        4329.88333540 eV
  | Free-atom electrostatic energy:        -368.53910257 Ha      -10028.45922334 eV
  | Hartree energy correction     :         -30.96960563 Ha        -842.72584662 eV
  | Entropy correction            :           0.00000000 Ha           0.00000000 eV
  | ---------------------------
  | Total energy                  :        -846.62111638 Ha      -23037.73272357 eV
  | Total energy, T -> 0          :        -846.62111638 Ha      -23037.73272357 eV  <-- do not rely on this value for anything but (periodic) metals
  | Electronic free energy        :        -846.62111638 Ha      -23037.73272357 eV

  Derived energy quantities:
  | Kinetic energy                :         846.71838312 Ha       23040.37948628 eV
  | Electrostatic energy          :       -1569.48128633 Ha      -42707.75874794 eV
  | Energy correction for multipole
  | error in Hartree potential    :          -0.08955928 Ha          -2.43703211 eV
  | Sum of eigenvalues per atom                           :        -364.61326464 eV
  | Total energy (T->0) per atom                          :        -639.93702010 eV  <-- do not rely on this value for anything but (periodic) metals
  | Electronic free energy per atom                       :        -639.93702010 eV

  Self-consistency convergence accuracy:
  | Change of charge density      :  0.4602E+00
  | Change of sum of eigenvalues  :  0.2049E+03 eV
  | Change of total energy        :  0.2737E+01 eV

  End self-consistency iteration #     2       :  max(cpu_time)    wall_clock(cpu1)
  | Time for this iteration                    :        3.030 s           3.034 s
  | Charge density update                      :        0.739 s           0.738 s
  | Density mixing                             :        0.003 s           0.005 s
  | Hartree multipole update                   :        0.007 s           0.008 s
  | Hartree multipole summation                :        0.315 s           0.315 s
  | Integration                                :        1.865 s           1.865 s
  | Solution of K.-S. eqns.                    :        0.097 s           0.097 s
  | Total energy evaluation                    :        0.001 s           0.001 s

  Partial memory accounting:
  | Current value for overall tracked memory usage on task 0  :           2.404 MB
  | Peak value for overall tracked memory usage on task 0     :          22.661 MB after allocating zora_vector2
  | Largest tracked array allocation on task 0 so far         :           6.139 MB  when allocating hamiltonian_shell
  Note:  These values currently only include a subset of arrays which are explicitly tracked.
  The "true" memory usage will be greater.
------------------------------------------------------------

------------------------------------------------------------
          Begin self-consistency iteration #    3

  Date     :  20210620, Time     :  174605.497
------------------------------------------------------------
  Evaluating new KS density.
  Integration grid: deviation in total charge (<rho> - N_e) =   8.526513E-14
  Pulay mixing of updated and previous charge densities.

  Evaluating partitioned Hartree potential by multipole expansion.
  | Analytical far-field extrapolation by fixed multipoles:
  | Hartree multipole sum: apparent total charge =  -0.582683E-04
  Summing up the Hartree potential with load balancing.
  Time summed over all CPUs for potential: real work       15.037 s, elapsed       17.551 s
  | RMS charge density error from multipole expansion :   0.247256E-01

  Integrating Hamiltonian matrix: batch-based integration with load balancing
  Time summed over all CPUs for integration: real work      100.049 s, elapsed      104.017 s
  Time get_set_full_local_matrix_scalapack:     0.015618 s

  Updating Kohn-Sham eigenvalues and eigenvectors using ELSI and the ELPA eigensolver.
  Finished transformation to standard eigenproblem
  | Time :     0.007 s
  Starting ELPA eigensolver
  Finished solving standard eigenproblem
  | Time :     0.051 s
  Finished back-transformation of eigenvectors
  | Time :     0.002 s

  Obtaining occupation numbers and chemical potential using ELSI.
  | Chemical potential (Fermi level):    -3.00887827 eV
  Highest occupied state (VBM) at     -4.99873754 eV
[...]
  |------------------------------------------------------

------------------------------------------------------------
          Post-processing: scaled ZORA corrections to eigenvalues and total energy.

  Date     :  20210620, Time     :  174704.149
------------------------------------------------------------
  Computing correction matrix for scaled ZORA eigenvalues.
  Evaluating scaled zora correction for each Kohn-Sham eigenstate.
  Evaluating scaled zora correction for each Kohn-Sham eigenstate.
  Time get_set_sparse_local_matrix_scalapack:     2.416794 s
  Writing Kohn-Sham eigenvalues.

  State    Occupation    Eigenvalue [Ha]    Eigenvalue [eV]
      1       2.00000          -9.904998         -269.52871
      2       2.00000          -9.903688         -269.49308
      3       2.00000          -9.903031         -269.47518
      4       2.00000          -9.902817         -269.46936
      5       2.00000          -9.902444         -269.45920
      6       2.00000          -9.902268         -269.45441
      7       2.00000          -9.900601         -269.40907
      8       2.00000          -9.900354         -269.40233
      9       2.00000          -9.899289         -269.37335
     10       2.00000          -9.898519         -269.35242
     11       2.00000          -9.898344         -269.34764
     12       2.00000          -9.898009         -269.33853
     13       2.00000          -9.897883         -269.33511
     14       2.00000          -9.897690         -269.32985
     15       2.00000          -9.897521         -269.32525
     16       2.00000          -9.897185         -269.31611
     17       2.00000          -9.897111         -269.31410
     18       2.00000          -9.897010         -269.31135
     19       2.00000          -9.896800         -269.30564
     20       2.00000          -9.896360         -269.29367
     21       2.00000          -9.895935         -269.28209
     22       2.00000          -9.895468         -269.26939
     23       2.00000          -0.827982          -22.53055
     24       2.00000          -0.800148          -21.77315
     25       2.00000          -0.780118          -21.22810
     26       2.00000          -0.759201          -20.65892
     27       2.00000          -0.720611          -19.60882
     28       2.00000          -0.717048          -19.51187
     29       2.00000          -0.706331          -19.22024
     30       2.00000          -0.689644          -18.76616
     31       2.00000          -0.657971          -17.90431
     32       2.00000          -0.657162          -17.88228
     33       2.00000          -0.637333          -17.34271
     34       2.00000          -0.599288          -16.30747
     35       2.00000          -0.578880          -15.75212
     36       2.00000          -0.568934          -15.48148
     37       2.00000          -0.548597          -14.92808
     38       2.00000          -0.540371          -14.70425
     39       2.00000          -0.533711          -14.52301
     40       2.00000          -0.505765          -13.76256
     41       2.00000          -0.493278          -13.42277
     42       2.00000          -0.464719          -12.64566
     43       2.00000          -0.462312          -12.58016
     44       2.00000          -0.442851          -12.05058
     45       2.00000          -0.433690          -11.80131
     46       2.00000          -0.428580          -11.66227
     47       2.00000          -0.414284          -11.27325
     48       2.00000          -0.411019          -11.18440
     49       2.00000          -0.394368          -10.73130
     50       2.00000          -0.385991          -10.50335
     51       2.00000          -0.385269          -10.48371
     52       2.00000          -0.378599          -10.30219
     53       2.00000          -0.378255          -10.29283
     54       2.00000          -0.371948          -10.12121
     55       2.00000          -0.365367           -9.94215
     56       2.00000          -0.356780           -9.70848
     57       2.00000          -0.354201           -9.63830
     58       2.00000          -0.343713           -9.35291
     59       2.00000          -0.332147           -9.03819
     60       2.00000          -0.324097           -8.81913
     61       2.00000          -0.321773           -8.75590
     62       2.00000          -0.308659           -8.39905
     63       2.00000          -0.307252           -8.36076
     64       2.00000          -0.306517           -8.34075
     65       2.00000          -0.286937           -7.80795
     66       2.00000          -0.281653           -7.66416
     67       2.00000          -0.270920           -7.37211
     68       2.00000          -0.268261           -7.29976
     69       2.00000          -0.255309           -6.94731
     70       2.00000          -0.242164           -6.58961
     71       2.00000          -0.210289           -5.72227
     72       2.00000          -0.205707           -5.59757
     73       2.00000          -0.183960           -5.00580
     74       0.00000          -0.096152           -2.61642
     75       0.00000          -0.075592           -2.05697
     76       0.00000          -0.069380           -1.88793
     77       0.00000          -0.038963           -1.06025
     78       0.00000          -0.020809           -0.56625
     79       0.00000          -0.014532           -0.39545
     80       0.00000          -0.006124           -0.16665
     81       0.00000          -0.003104           -0.08446
     82       0.00000          -0.001035           -0.02816
     83       0.00000          -0.000635           -0.01727
     84       0.00000           0.012232            0.33285
     85       0.00000           0.014043            0.38214
     86       0.00000           0.029168            0.79369
     87       0.00000           0.033036            0.89897
     88       0.00000           0.048912            1.33095
     89       0.00000           0.051176            1.39257
     90       0.00000           0.059593            1.62161
     91       0.00000           0.066490            1.80927
     92       0.00000           0.074859            2.03702
     93       0.00000           0.077808            2.11727
     94       0.00000           0.086310            2.34861
     95       0.00000           0.090107            2.45194
     96       0.00000           0.096990            2.63924
     97       0.00000           0.104845            2.85297
     98       0.00000           0.106861            2.90784
     99       0.00000           0.113074            3.07690
    100       0.00000           0.115006            3.12947
    101       0.00000           0.123616            3.36376
    102       0.00000           0.124400            3.38510
    103       0.00000           0.137513            3.74192
    104       0.00000           0.139483            3.79553
    105       0.00000           0.146019            3.97339
    106       0.00000           0.146134            3.97650
    107       0.00000           0.149931            4.07982
    108       0.00000           0.159250            4.33342
    109       0.00000           0.166871            4.54078
    110       0.00000           0.168223            4.57759
    111       0.00000           0.169631            4.61589
    112       0.00000           0.173714            4.72701
    113       0.00000           0.177450            4.82866
    114       0.00000           0.181288            4.93310
    115       0.00000           0.182565            4.96784
    116       0.00000           0.188043            5.11691
    117       0.00000           0.191600            5.21369
    118       0.00000           0.192938            5.25012
    119       0.00000           0.194680            5.29751
    120       0.00000           0.202194            5.50199
    121       0.00000           0.204207            5.55675
    122       0.00000           0.207140            5.63656
    123       0.00000           0.212170            5.77345
    124       0.00000           0.214074            5.82524
    125       0.00000           0.221081            6.01593
    126       0.00000           0.230341            6.26791
    127       0.00000           0.231285            6.29359
    128       0.00000           0.232004            6.31314
    129       0.00000           0.234161            6.37185
    130       0.00000           0.237653            6.46686
    131       0.00000           0.239705            6.52269
    132       0.00000           0.246815            6.71618
    133       0.00000           0.255661            6.95689
    134       0.00000           0.257706            7.01255
    135       0.00000           0.258579            7.03630
    136       0.00000           0.259240            7.05429
    137       0.00000           0.261138            7.10592
    138       0.00000           0.265402            7.22195
    139       0.00000           0.269263            7.32702
    140       0.00000           0.271002            7.37433
    141       0.00000           0.274580            7.47169
    142       0.00000           0.281635            7.66369
    143       0.00000           0.283062            7.70251
    144       0.00000           0.302737            8.23789
    145       0.00000           0.310708            8.45480
    146       0.00000           0.312923            8.51506
    147       0.00000           0.320088            8.71003
    148       0.00000           0.322691            8.78086
    149       0.00000           0.322972            8.78852
    150       0.00000           0.325078            8.84581
    151       0.00000           0.328858            8.94869
    152       0.00000           0.337274            9.17770
    153       0.00000           0.340047            9.25316
    154       0.00000           0.346319            9.42383
    155       0.00000           0.347129            9.44587
    156       0.00000           0.353973            9.63211
    157       0.00000           0.357787            9.73588
    158       0.00000           0.366568            9.97482
    159       0.00000           0.369202           10.04649
    160       0.00000           0.370755           10.08877

  Highest occupied state (VBM) at     -5.00580411 eV
  | Occupation number:      2.00000000

  Lowest unoccupied state (CBM) at    -2.61641638 eV
  | Occupation number:      0.00000000

  Overall HOMO-LUMO gap:      2.38938773 eV.

  Total energy components:
  | Sum of eigenvalues            :        -481.96658730 Ha      -13114.97812324 eV
  | XC energy correction          :        -123.88017854 Ha       -3370.95117028 eV
  | XC potential correction       :         159.14329980 Ha        4330.50952135 eV
  | Free-atom electrostatic energy:        -368.53910257 Ha      -10028.45922334 eV
  | Hartree energy correction     :         -31.18674773 Ha        -848.63458372 eV
  | Entropy correction            :           0.00000000 Ha           0.00000000 eV
  | ---------------------------
  | Total energy                  :        -846.42931635 Ha      -23032.51357923 eV
  | Total energy, T -> 0          :        -846.42931635 Ha      -23032.51357923 eV  <-- do not rely on this value for anything but (periodic) metals
  | Electronic free energy        :        -846.42931635 Ha      -23032.51357923 eV

  Derived energy quantities:
  | Kinetic energy                :         844.44860550 Ha       22978.61569465 eV
  | Electrostatic energy          :       -1566.99774330 Ha      -42640.17810359 eV
  | Energy correction for multipole
  | error in Hartree potential    :          -0.10280288 Ha          -2.79740880 eV
  | Sum of eigenvalues per atom                           :        -364.30494787 eV
  | Total energy (T->0) per atom                          :        -639.79204387 eV  <-- do not rely on this value for anything but (periodic) metals
  | Electronic free energy per atom                       :        -639.79204387 eV
  End evaluation of scaled ZORA corrections.
  | Time for scaled ZORA corrections           :        3.274 s           3.287 s
------------------------------------------------------------

  Energy and forces in a compact form:
  | Total energy uncorrected      :         -0.230325135792286E+05 eV
  | Total energy corrected        :         -0.230325135792286E+05 eV  <-- do not rely on this value for anything but (periodic) metals
  | Electronic free energy        :         -0.230325135792286E+05 eV

  ------------------------------------ 
  Start decomposition of the XC Energy 
  ------------------------------------ 
  X and C from original XC functional choice 
  Hartree-Fock Energy :          0.000000000 Ha              0.000000000 eV
  X Energy            :       -118.987487590 Ha          -3237.814275506 eV
  C Energy            :         -4.892690954 Ha           -133.136894777 eV
  Total XC Energy     :       -123.880178544 Ha          -3370.951170283 eV
  ------------------------------------ 
  LDA X and C from self-consistent density 
  X Energy LDA        :       -107.771783953 Ha          -2932.619451400 eV
  C Energy LDA        :         -9.420668392 Ha           -256.349429856 eV
  ------------------------------------ 
  End decomposition of the XC Energy 
  ------------------------------------ 

------------------------------------------------------------

------------------------------------------------------------------------------
  Final output of selected total energy values:

  The following output summarizes some interesting total energy values
  at the end of a run (AFTER all relaxation, molecular dynamics, etc.).

  | Total energy of the DFT / Hartree-Fock s.c.f. calculation      :         -23032.513579229 eV
  | Final zero-broadening corrected energy (caution - metals only) :         -23032.513579229 eV
  | For reference only, the value of 1 Hartree used in FHI-aims is :             27.211384500 eV

  Before relying on these values, please be sure to understand exactly which
  total energy value is referred to by a given number. Different objects may
  all carry the same name 'total energy'. Definitions:

  Total energy of the DFT / Hartree-Fock s.c.f. calculation:
  | Note that this energy does not include ANY quantities calculated after the
  | s.c.f. cycle, in particular not ANY RPA, MP2, etc. many-body perturbation terms.
  | Scalar relativistic effects have been included in the 'scaled ZORA' approximation.

  Final zero-broadening corrected energy:
  | For metallic systems only, a broadening of the occupation numbers at the Fermi
  | level can be extrapolated back to zero broadening by an electron-gas inspired
  | formula. For all systems that are not real metals, this value can be
  | meaningless and should be avoided.

------------------------------------------------------------------------------
  Methods described in the following list of references were used in this FHI-aims run.
  If you publish the results, please make sure to cite these reference if they apply.
  FHI-aims is an academic code, and for our developers (often, Ph.D. students
  and postdocs), scientific credit in the community is essential.
  Thank you for helping us!

  For any use of FHI-aims, please cite:

    Volker Blum, Ralf Gehrke, Felix Hanke, Paula Havu, Ville Havu,
    Xinguo Ren, Karsten Reuter, and Matthias Scheffler
    'Ab initio molecular simulations with numeric atom-centered orbitals'
    Computer Physics Communications 180, 2175-2196 (2009)
    http://dx.doi.org/10.1016/j.cpc.2009.06.022


  The scalable eigensolver library ELPA was used in your run.
  ELPA is essential especially for large systems on hundreds or thousands of CPUs.
  For ELPA, please cite:

    Andreas Marek, Volker Blum, Rainer Johanni, Ville Havu, Bruno Lang,
    Thomas Auckenthaler, Alexander Heinecke, Hans-Joachim Bungartz, and Hermann Lederer,
    'The ELPA Library - Scalable Parallel Eigenvalue Solutions
    for Electronic Structure Theory and Computational Science'
    The Journal of Physics: Condensed Matter 26, 213201 (2014).
    http://dx.doi.org/10.1088/0953-8984/26/21/213201


  The ELSI infrastructure was used in your run to solve the Kohn-Sham electronic structure.
  Please check out http://elsi-interchange.org to learn more.
  If scalability is important for your project, please acknowledge ELSI by citing:

    V. W-z. Yu, F. Corsetti, A. Garcia, W. P. Huhn, M. Jacquelin, W. Jia,
    B. Lange, L. Lin, J. Lu, W. Mi, A. Seifitokaldani, A. Vazquez-Mayagoitia,
    C. Yang, H. Yang, and V. Blum
    'ELSI: A unified software interface for Kohn-Sham electronic structure solvers'
    Computer Physics Communications 222, 267-285 (2018).
    http://dx.doi.org/10.1016/j.cpc.2017.09.007


  For the real-space grid partitioning and parallelization used in this calculation, please cite:

    Ville Havu, Volker Blum, Paula Havu, and Matthias Scheffler,
    'Efficient O(N) integration for all-electron electronic structure calculation'
    'using numerically tabulated basis functions'
    Journal of Computational Physics 228, 8367-8379 (2009).
    http://dx.doi.org/10.1016/j.jcp.2009.08.008

  Of course, there are many other important community references, e.g., those cited in the
  above references. Our list is limited to references that describe implementations in the
  FHI-aims code. The reason is purely practical (length of this list) - please credit others as well.

------------------------------------------------------------
          Leaving FHI-aims.
          Date     :  20210620, Time     :  174707.483

          Computational steps:
          | Number of self-consistency cycles          :           18
          | Number of SCF (re)initializations          :            1

          Detailed time accounting                     :  max(cpu_time)    wall_clock(cpu1)
          | Total time                                 :       63.202 s          73.552 s
          | Preparation time                           :        0.196 s           0.185 s
          | Boundary condition initalization           :        0.000 s           0.003 s
          | Grid partitioning                          :        0.600 s           0.604 s
          | Preloading free-atom quantities on grid    :        0.014 s           0.016 s
          | Free-atom superposition energy             :        0.043 s           0.044 s
          | Total time for integrations                :       37.131 s          37.138 s
          | Total time for solution of K.-S. equations :        1.796 s           1.821 s
          | Total time for density update              :       13.409 s          13.361 s
          | Total time for mixing                      :        0.101 s           0.104 s
          | Total time for Hartree multipole update    :        0.129 s           0.136 s
          | Total time for Hartree multipole sum       :        5.805 s           5.808 s
          | Total time for total energy evaluation     :        0.007 s           0.031 s
          | Total time for scaled ZORA corrections     :        3.274 s           3.287 s

          Partial memory accounting:
          | Residual value for overall tracked memory usage across tasks :     0.000000 MB (should be 0.000000 MB)
          | Peak values for overall tracked memory usage (after allocating zora_vector2):
          |   Minimum:       22.042 MB (on task  2)
          |   Maximum:       26.776 MB (on task 14)
          |   Average:       24.314 MB
          | Largest tracked array allocation (hamiltonian_shell):
          |   Minimum:        6.139 MB (on task  1)
          |   Maximum:        6.139 MB (on task  1)
          |   Average:        6.139 MB
          Note:  These values currently only include a subset of arrays which are explicitly tracked.
          The "true" memory usage will be greater.

          Have a nice day.
------------------------------------------------------------
