  MPI-parallelism will be employed.
------------------------------------------------------------
          Invoking FHI-aims ...
          Version 180607
          Git rev. (modified): 6724847 Fix JSON memory corruption in scf_solver
          Compiled on 2018/06/27 at 16:00:31 on host coe.psc.edu.

          When using FHI-aims, please cite the following reference:

          Volker Blum, Ralf Gehrke, Felix Hanke, Paula Havu,
          Ville Havu, Xinguo Ren, Karsten Reuter, and Matthias Scheffler,
          'Ab Initio Molecular Simulations with Numeric Atom-Centered Orbitals',
          Computer Physics Communications 180, 2175-2196 (2009)

          For any questions about FHI-aims, please visit the aimsclub website
          with its forums and wiki. Contributions to both the forums and the
          wiki are warmly encouraged - they are for you, and everyone is welcome there.

------------------------------------------------------------



  Date     :  20210620, Time     :  164654.168
  Time zero on CPU 1             :   0.207421000000000E+00  s.
  Internal wall clock time zero  :           393439614.168  s.

  FHI-aims created a unique identifier for this run for later identification
  aims_uuid : 39CFD977-6F7C-4276-AAFB-1E38964C8A08

  Using       56 parallel tasks.
  Task        0 on host d021 reporting.
  Task        1 on host d021 reporting.
  Task        2 on host d021 reporting.
  Task        3 on host d021 reporting.
  Task        4 on host d021 reporting.
  Task        5 on host d021 reporting.
  Task        6 on host d021 reporting.
  Task        7 on host d021 reporting.
  Task        8 on host d021 reporting.
  Task        9 on host d021 reporting.
  Task       10 on host d021 reporting.
  Task       11 on host d021 reporting.
  Task       12 on host d021 reporting.
  Task       13 on host d021 reporting.
  Task       14 on host d021 reporting.
  Task       15 on host d021 reporting.
  Task       16 on host d021 reporting.
  Task       17 on host d021 reporting.
  Task       18 on host d021 reporting.
  Task       19 on host d021 reporting.
  Task       20 on host d021 reporting.
  Task       21 on host d021 reporting.
  Task       22 on host d021 reporting.
  Task       23 on host d021 reporting.
  Task       24 on host d021 reporting.
  Task       25 on host d021 reporting.
  Task       26 on host d021 reporting.
  Task       27 on host d021 reporting.
  Task       28 on host d021 reporting.
  Task       29 on host d021 reporting.
  Task       30 on host d021 reporting.
  Task       31 on host d021 reporting.
  Task       32 on host d021 reporting.
  Task       33 on host d021 reporting.
  Task       34 on host d021 reporting.
  Task       35 on host d021 reporting.
  Task       36 on host d021 reporting.
  Task       37 on host d021 reporting.
  Task       38 on host d021 reporting.
  Task       39 on host d021 reporting.
  Task       40 on host d021 reporting.
  Task       41 on host d021 reporting.
  Task       42 on host d021 reporting.
  Task       43 on host d021 reporting.
  Task       44 on host d021 reporting.
  Task       45 on host d021 reporting.
  Task       46 on host d021 reporting.
  Task       47 on host d021 reporting.
  Task       48 on host d021 reporting.
  Task       49 on host d021 reporting.
  Task       50 on host d021 reporting.
  Task       51 on host d021 reporting.
  Task       52 on host d021 reporting.
  Task       53 on host d021 reporting.
  Task       54 on host d021 reporting.
  Task       55 on host d021 reporting.

  Performing system and environment tests:
  *** Environment variable OMP_NUM_THREADS is not set
  *** For performance reasons you might want to set it to 1
  | Stacksize not measured: no C compiler
  | Checking for scalapack...
  | Testing pdtran()...
  | All pdtran() tests passed.

  Obtaining array dimensions for all initial allocations:
  
  -----------------------------------------------------------------------
  Parsing control.in (first pass over file, find array dimensions only).
  The contents of control.in will be repeated verbatim below
  unless switched off by setting 'verbatim_writeout .false.' .
  in the first line of control.in .
  -----------------------------------------------------------------------
  
  #===============================================================================
  # FHI-aims file: ./Runs/es/control.in
  # Created using the Atomic Simulation Environment (ASE)
  # Mon Jan 13 16:04:38 2020
  #===============================================================================
  xc                                 pbe
  relativistic                       zora scalar 1e-12
  occupation_type                    gaussian 0.0001
  load_balancing                     .true.
  KS_method                          scalapack_fast
  mixer                              pulay
  n_max_pulay                        5
  charge_mix_param                   0.4
  sc_accuracy_etot                   1e-6
  sc_accuracy_eev                    1e-4
  sc_accuracy_rho                    1e-6
  sc_iter_limit                      100
  prodbas_threshold                  1e-4
  basis_threshold                    1e-5
  override_illconditioning           .true.
  use_logsbt                         .true.
  spin                               none
  charge                             0
  #===============================================================================
  
  ################################################################################
  #
  #  FHI-aims code project
  # Volker Blum, Fritz Haber Institute Berlin, 2009
  #
  #  Suggested "tight" defaults for H atom (to be pasted into control.in file)
  #
  ################################################################################
    species        H
  #     global species definitions
      nucleus             1
      mass                1.00794
  #
      l_hartree           6
  #
      cut_pot             4.0  2.0  1.0
      basis_dep_cutoff    1e-4
  #
      radial_base         24 7.0
      radial_multiplier   2
      angular_grids       specified
        division   0.1930   50
        division   0.3175  110
        division   0.4293  194
        division   0.5066  302
        division   0.5626  434
  #      division   0.5922  590
  #      division   0.6227  974
  #      division   0.6868 1202
  #      outer_grid  770
        outer_grid  434
  ################################################################################
  #
  #  Definition of "minimal" basis
  #
  ################################################################################
  #     valence basis states
      valence      1  s   1.
  #     ion occupancy
      ion_occ      1  s   0.5
  ################################################################################
  #
  #  Suggested additional basis functions. For production calculations,
  #  uncomment them one after another (the most important basis functions are
  #  listed first).
  #
  #  Basis constructed for dimers: 0.5 A, 0.7 A, 1.0 A, 1.5 A, 2.5 A
  #
  ################################################################################
  #  "First tier" - improvements: -1014.90 meV to -62.69 meV
       hydro 2 s 2.1
       hydro 2 p 3.5
  #  "Second tier" - improvements: -12.89 meV to -1.83 meV
       hydro 1 s 0.85
       hydro 2 p 3.7
       hydro 2 s 1.2
       hydro 3 d 7
  #  "Third tier" - improvements: -0.25 meV to -0.12 meV
  #     hydro 4 f 11.2
  #     hydro 3 p 4.8
  #     hydro 4 d 9
  #     hydro 3 s 3.2
  ################################################################################
  #
  # For methods that use the localized form of the "resolution of identity" for
  # the two-electron Coulomb operator (RI_method LVL), particularly Hartree-Fock and
  # hybrid density functional calculations, the highest accuracy can be obtained by
  # uncommenting the line beginning with "for_aux"  below, thus adding an extra g radial
  # function to the construction of the product basis set for the expansion.
  # See Ref. New J. Phys. 17, 093020 (2015) for more information, particularly Figs. 1 and 6.
  #
  ################################################################################
  #
  # for_aux hydro 5 g 6.0
  ################################################################################
  #
  #  FHI-aims code project
  # Volker Blum, Fritz Haber Institute Berlin, 2009
  #
  #  Suggested "tight" defaults for C atom (to be pasted into control.in file)
  #
  ################################################################################
    species        C
  #     global species definitions
      nucleus             6
      mass                12.0107
  #
      l_hartree           6
  #
      cut_pot             4.0  2.0  1.0
      basis_dep_cutoff    1e-4
  #
      radial_base         34 7.0
      radial_multiplier   2
      angular_grids specified
        division   0.2187   50
        division   0.4416  110
        division   0.6335  194
        division   0.7727  302
        division   0.8772  434
  #      division   0.9334  590
  #      division   0.9924  770
  #      division   1.0230  974
  #      division   1.5020 1202
  #     outer_grid  974
        outer_grid  434
  ################################################################################
  #
  #  Definition of "minimal" basis
  #
  ################################################################################
  #     valence basis states
      valence      2  s   2.
      valence      2  p   2.
  #     ion occupancy
      ion_occ      2  s   1.
      ion_occ      2  p   1.
  ################################################################################
  #
  #  Suggested additional basis functions. For production calculations,
  #  uncomment them one after another (the most important basis functions are
  #  listed first).
  #
  #  Constructed for dimers: 1.0 A, 1.25 A, 1.5 A, 2.0 A, 3.0 A
  #
  ################################################################################
  #  "First tier" - improvements: -1214.57 meV to -155.61 meV
       hydro 2 p 1.7
       hydro 3 d 6
       hydro 2 s 4.9
  #  "Second tier" - improvements: -67.75 meV to -5.23 meV
       hydro 4 f 9.8
       hydro 3 p 5.2
       hydro 3 s 4.3
       hydro 5 g 14.4
       hydro 3 d 6.2
  #  "Third tier" - improvements: -2.43 meV to -0.60 meV
  #     hydro 2 p 5.6
  #     hydro 2 s 1.4
  #     hydro 3 d 4.9
  #     hydro 4 f 11.2
  #  "Fourth tier" - improvements: -0.39 meV to -0.18 meV
  #     hydro 2 p 2.1
  #     hydro 5 g 16.4
  #     hydro 4 d 13.2
  #     hydro 3 s 13.6
  #     hydro 4 f 17.6
  #  Further basis functions - improvements: -0.08 meV and below
  #     hydro 3 s 2
  #     hydro 3 p 6
  #     hydro 4 d 20
  ################################################################################
  #
  # For methods that use the localized form of the "resolution of identity" for
  # the two-electron Coulomb operator (RI_method LVL), particularly Hartree-Fock and
  # hybrid density functional calculations, the highest accuracy can be obtained by
  # uncommenting the line beginning with "for_aux"  below, thus adding an extra g radial
  # function to the construction of the product basis set for the expansion.
  # See Ref. New J. Phys. 17, 093020 (2015) for more information, particularly Figs. 1 and 6.
  #
  ################################################################################
  #
  # for_aux hydro 5 g 6.0
  
  -----------------------------------------------------------------------
  Completed first pass over input file control.in .
  -----------------------------------------------------------------------
  
  
  -----------------------------------------------------------------------
  Parsing geometry.in (first pass over file, find array dimensions only).
  The contents of geometry.in will be repeated verbatim below
  unless switched off by setting 'verbatim_writeout .false.' .
  in the first line of geometry.in .
  -----------------------------------------------------------------------
  
  #=======================================================
  # FHI-aims file: geometry.in
  # Created using the Atomic Simulation Environment (ASE)
  # Sun Jun 20 15:47:01 2021
  #=======================================================
  atom 10.6781179999999996 35.6588040000000035 44.6842400000000026 H
  atom 11.2909319999999997 35.9823459999999997 45.5275889999999990 C
  atom 10.8891650000000002 35.5896159999999995 46.8238410000000016 C
  atom 12.4142060000000001 36.6841569999999990 45.3339360000000013 C
  atom 9.7262629999999994 34.7899760000000029 47.0035370000000015 C
  atom 11.6687740000000009 35.9695859999999996 47.9421419999999969 C
  atom 12.7707809999999995 36.9084530000000015 44.3265930000000026 H
  atom 13.1488180000000003 37.2243390000000005 46.4400249999999986 C
  atom 9.1091970000000000 34.5923349999999985 46.1263429999999985 H
  atom 9.3744359999999993 34.3022530000000003 48.1951120000000017 C
  atom 11.4246499999999997 35.2394189999999981 49.1773329999999973 C
  atom 12.6870170000000009 36.9762240000000020 47.7607020000000020 C
  atom 14.3080580000000008 38.0183070000000001 46.2324150000000031 C
  atom 8.4623190000000008 33.7222310000000007 48.3207250000000030 H
  atom 10.2469070000000002 34.4596289999999996 49.3081800000000001 C
  atom 12.3674959999999992 35.1472619999999978 50.2223600000000019 C
  atom 13.2269269999999999 37.8254859999999979 48.8127080000000007 C
  atom 14.6829120000000000 38.1313060000000021 45.2142550000000014 H
  atom 14.9563140000000008 38.5882629999999978 47.2442950000000010 C
  atom 10.0003750000000000 33.7592360000000014 50.5067329999999970 C
  atom 12.1201279999999993 34.4156770000000023 51.3563630000000018 C
  atom 13.3295420000000000 35.6410819999999973 50.1166359999999997 H
  atom 12.5528099999999991 38.0565879999999979 50.0287069999999972 C
  atom 14.4048710000000000 38.5740849999999966 48.5736950000000007 C
  atom 15.8758920000000003 39.1482939999999999 47.0747179999999972 H
  atom 9.0715669999999999 33.1919740000000019 50.5780880000000010 H
  atom 10.9033280000000001 33.7493109999999987 51.5186119999999974 C
  atom 12.8825540000000007 34.3456380000000010 52.1304500000000033 H
  atom 11.5887349999999998 37.5811989999999980 50.1916549999999972 H
  atom 13.0600830000000006 38.8803290000000032 50.9987160000000017 C
  atom 14.9271150000000006 39.3836480000000009 49.6134879999999967 C
  atom 10.7115460000000002 33.1943839999999994 52.4362819999999985 H
  atom 12.4991109999999992 39.0375629999999987 51.9193509999999989 H
  atom 14.2815440000000002 39.5240110000000016 50.7911059999999992 C
  atom 15.8495249999999999 39.9309190000000029 49.4177419999999969 H
  atom 14.6996009999999995 40.1710950000000011 51.5644959999999983 H
  
  -----------------------------------------------------------------------
  Completed first pass over input file geometry.in .
  -----------------------------------------------------------------------
  

  Basic array size parameters:
  | Number of species                 :        2
  | Number of atoms                   :       36
  | Max. basis fn. angular momentum   :        4
  | Max. atomic/ionic basis occupied n:        2
  | Max. number of basis fn. types    :        2
  | Max. radial fns per species/type  :        8
  | Max. logarithmic grid size        :     1277
  | Max. radial integration grid size :       69
  | Max. angular integration grid size:      434
  | Max. angular grid division number :        8
  | Radial grid for Hartree potential :     1277
  | Number of spin channels           :        1

------------------------------------------------------------
          Reading file control.in.
------------------------------------------------------------
  XC: Using PBE gradient-corrected functionals.
  Scalar relativistic treatment of kinetic energy: ZORA.
  Threshold value for ZORA:   0.100000E-11
  Occupation type: Gaussian broadening, width =   0.100000E-03 eV.
  Since 'load_balancing .true.' is present in control.in, automatically turning on 'use_local_index .true.'.
  Using load balancing for integrations.
  Kohn-Sham electronic structure solved by the ELSI library.
  Using pulay charge density mixing.
  Pulay mixing - number of memorized iterations:    5
  Charge density mixing - mixing parameter:     0.4000
  Convergence accuracy of total energy:  0.1000E-05
  Convergence accuracy of sum of eigenvalues:  0.1000E-03
  Convergence accuracy of self-consistent charge density:  0.1000E-05
  Maximum number of s.-c. iterations  :   100
  * Ignoring prodbas_threshold
  Threshold for basis singularities:  0.1000E-04
  override_illconditioning: Explicitly overriding any built-in checks for an ill-conditioned overlap matrix.
  *** WARNING: If you use this flag, you should really know what you are doing.
  *** DO NOT keep this flag set by default in all your control.in files.
  Using 1D integrations for auxiliary 2-center integrals.
  Spin treatment: No spin polarisation.
  Charge =   0.000000E+00: Neutral system requested explicitly.
 
  Reading configuration options for species H                   .
  | Found nuclear charge :   1.0000
  | Found atomic mass :    1.00794000000000      amu
  | Found l_max for Hartree potential  :   6
  | Found cutoff potl. onset [A], width [A], scale factor :    4.00000    2.00000    1.00000
  | Threshold for basis-dependent cutoff potential is   0.100000E-03
  | Found data for basic radial integration grid :    24 points, outermost radius =    7.000 A
  | Found multiplier for basic radial grid :   2
  | Found angular grid specification: user-specified.
  | Specified grid contains     6 separate shells.
  | Check grid settings after all constraints further below.
  | Found free-atom valence shell :  1 s   1.000
  | No ionic wave fns used. Skipping ion_occ.
  | Found hydrogenic basis function :  2 s   2.100
  | Found hydrogenic basis function :  2 p   3.500
  | Found hydrogenic basis function :  1 s   0.850
  | Found hydrogenic basis function :  2 p   3.700
  | Found hydrogenic basis function :  2 s   1.200
  | Found hydrogenic basis function :  3 d   7.000
  Species H                   : Missing cutoff potential type.
  Defaulting to exp(1/x)/(1-x)^2 type cutoff potential.
  Species H : No 'logarithmic' tag. Using default grid for free atom:
  | Default logarithmic grid data [bohr] : 0.1000E-03 0.1000E+03 0.1012E+01
  Species H : On-site basis accuracy parameter (for Gram-Schmidt orthonormalisation) not specified.
  Using default value basis_acc =  0.1000000E-03.
  Species H                   : Using default innermost maximum threshold i_radial=  2 for radial functions.
  Species H                   : Default cutoff onset for free atom density etc. : 0.40000000E+01 AA.
  Species H                   : Basic radial grid will be enhanced according to radial_multiplier =   2, to contain    49 grid points.
 
  Reading configuration options for species C                   .
  | Found nuclear charge :   6.0000
  | Found atomic mass :    12.0107000000000      amu
  | Found l_max for Hartree potential  :   6
  | Found cutoff potl. onset [A], width [A], scale factor :    4.00000    2.00000    1.00000
  | Threshold for basis-dependent cutoff potential is   0.100000E-03
  | Found data for basic radial integration grid :    34 points, outermost radius =    7.000 A
  | Found multiplier for basic radial grid :   2
  | Found angular grid specification: user-specified.
  | Specified grid contains     6 separate shells.
  | Check grid settings after all constraints further below.
  | Found free-atom valence shell :  2 s   2.000
  | Found free-atom valence shell :  2 p   2.000
  | No ionic wave fns used. Skipping ion_occ.
  | No ionic wave fns used. Skipping ion_occ.
  | Found hydrogenic basis function :  2 p   1.700
  | Found hydrogenic basis function :  3 d   6.000
  | Found hydrogenic basis function :  2 s   4.900
  | Found hydrogenic basis function :  4 f   9.800
  | Found hydrogenic basis function :  3 p   5.200
  | Found hydrogenic basis function :  3 s   4.300
  | Found hydrogenic basis function :  5 g  14.400
  | Found hydrogenic basis function :  3 d   6.200
  Species C                   : Missing cutoff potential type.
  Defaulting to exp(1/x)/(1-x)^2 type cutoff potential.
  Species C : No 'logarithmic' tag. Using default grid for free atom:
  | Default logarithmic grid data [bohr] : 0.1000E-03 0.1000E+03 0.1012E+01
  Species C : On-site basis accuracy parameter (for Gram-Schmidt orthonormalisation) not specified.
  Using default value basis_acc =  0.1000000E-03.
  Species C                   : Using default innermost maximum threshold i_radial=  2 for radial functions.
  Species C                   : Default cutoff onset for free atom density etc. : 0.40000000E+01 AA.
  Species C                   : Basic radial grid will be enhanced according to radial_multiplier =   2, to contain    69 grid points.
 
  Finished reading input file 'control.in'. Consistency checks are next.
 
  MPI_IN_PLACE appears to work with this MPI implementation.
  | Keeping use_mpi_in_place .true. (see manual).
  Target number of points in a grid batch is not set. Defaulting to  100
  Method for grid partitioning is not set. Defaulting to parallel hash+maxmin partitioning.
  Batch size limit is not set. Defaulting to    200
  By default, will store active basis functions for each batch.
  If in need of memory, prune_basis_once .false. can be used to disable this option.
  communication_type for Hartree potential was not specified.
  Defaulting to calc_hartree .
  Pulay mixer: Number of initial linear mixing iterations not set.
  Defaulting to    0 iterations.
  Work space size for distributed Hartree potential not set.
  Defaulting to   0.200000E+03 MB.
  Algorithm-dependent basis array size parameters:
  | n_max_pulay                         :        5
  Presetting      1001 iterations before the initial mixing cycle
  is restarted anyway using the sc_init_iter criterion / keyword.
  Presetting a factor      1.000 between actual scf density residual
  and density convergence criterion sc_accuracy_rho below which sc_init_iter
  takes no effect.
  Calculation of forces was not defined in control.in. No forces will be calculated.
  Geometry relaxation not requested: no relaxation will be performed.
  No accuracy limit for integral partition fn. given. Defaulting to  0.1000E-14.
  No threshold value for u(r) in integrations given. Defaulting to  0.1000E-05.
  No accuracy for occupation numbers given. Defaulting to  0.1000E-12.
  No threshold value for occupation numbers given. Defaulting to  0.0000E+00.
  No accuracy for fermi level given. Defaulting to  0.1000E-19.
  Maximum # of iterations to find E_F not set. Defaulting to  200.
  Will not use alltoall communication since running on < 1024 CPUs.
  partition_type (choice of integration weights) for integrals was not specified.
  | Using a version of the partition function of Stratmann and coworkers ('stratmann_sparse').
  | At each grid point, the set of atoms used to build the partition table is smoothly restricted to
  | only those atoms whose free-atom density would be non-zero at that grid point.
  Partitioning for Hartree potential was not defined. Using partition_type for integrals.
  | Adjusted default value of keyword multip_moments_threshold to:       0.10000000E-11
  | This value may affect high angular momentum components of the Hartree potential in periodic systems.
  No q(lm)/r^(l+1) cutoff set for long-range Hartree potential.
  | Using default value of  0.100000E-09 .
  | Verify using the multipole_threshold keyword.
  Defaulting to new monopole extrapolation.
  Density update method: automatic selection selected.
 * Warning: use_local_index and/or load_balancing needs packed_matrix_format = index
 * Changing the default setting to packed_matrix_format = index
------------------------------------------------------------


------------------------------------------------------------
          Reading geometry description geometry.in.
------------------------------------------------------------
  Input structure read successfully.
  The structure contains       36 atoms,  and a total of        146.000 electrons.

  Input geometry:
  | No unit cell requested.
  | Atomic structure:
  |       Atom                x [A]            y [A]            z [A]
  |    1: Species H            10.67811800       35.65880400       44.68424000
  |    2: Species C            11.29093200       35.98234600       45.52758900
  |    3: Species C            10.88916500       35.58961600       46.82384100
  |    4: Species C            12.41420600       36.68415700       45.33393600
  |    5: Species C             9.72626300       34.78997600       47.00353700
  |    6: Species C            11.66877400       35.96958600       47.94214200
  |    7: Species H            12.77078100       36.90845300       44.32659300
  |    8: Species C            13.14881800       37.22433900       46.44002500
  |    9: Species H             9.10919700       34.59233500       46.12634300
  |   10: Species C             9.37443600       34.30225300       48.19511200
  |   11: Species C            11.42465000       35.23941900       49.17733300
  |   12: Species C            12.68701700       36.97622400       47.76070200
  |   13: Species C            14.30805800       38.01830700       46.23241500
  |   14: Species H             8.46231900       33.72223100       48.32072500
  |   15: Species C            10.24690700       34.45962900       49.30818000
  |   16: Species C            12.36749600       35.14726200       50.22236000
  |   17: Species C            13.22692700       37.82548600       48.81270800
  |   18: Species H            14.68291200       38.13130600       45.21425500
  |   19: Species C            14.95631400       38.58826300       47.24429500
  |   20: Species C            10.00037500       33.75923600       50.50673300
  |   21: Species C            12.12012800       34.41567700       51.35636300
  |   22: Species H            13.32954200       35.64108200       50.11663600
  |   23: Species C            12.55281000       38.05658800       50.02870700
  |   24: Species C            14.40487100       38.57408500       48.57369500
  |   25: Species H            15.87589200       39.14829400       47.07471800
  |   26: Species H             9.07156700       33.19197400       50.57808800
  |   27: Species C            10.90332800       33.74931100       51.51861200
  |   28: Species H            12.88255400       34.34563800       52.13045000
  |   29: Species H            11.58873500       37.58119900       50.19165500
  |   30: Species C            13.06008300       38.88032900       50.99871600
  |   31: Species C            14.92711500       39.38364800       49.61348800
  |   32: Species H            10.71154600       33.19438400       52.43628200
  |   33: Species H            12.49911100       39.03756300       51.91935100
  |   34: Species C            14.28154400       39.52401100       50.79110600
  |   35: Species H            15.84952500       39.93091900       49.41774200
  |   36: Species H            14.69960100       40.17109500       51.56449600
  |

  | The smallest distance between any two atoms is         1.08653958 AA.
  |
  | The first atom of this pair is atom number                     16 .
  | The second atom of this pair is atom number                    22 .

  Number of empty states per atom not set in control.in - providing a guess from actual geometry.
  | Total number of empty states used during s.c.f. cycle:       87
  If you use a very high smearing, use empty_states (per atom!) in control.in to increase this value.

  Structure-dependent array size parameters: 
  | Maximum number of distinct radial functions  :       18
  | Maximum number of basis functions            :     1068
  | Number of Kohn-Sham states (occupied + empty):      160
------------------------------------------------------------

------------------------------------------------------------
          Preparing all fixed parts of the calculation.
------------------------------------------------------------
  Determining machine precision:
    2.225073858507201E-308
  Setting up grids for atomic and cluster calculations.

  Creating wave function, potential, and density for free atoms.

  Species: H

  List of occupied orbitals and eigenvalues:
    n    l              occ      energy [Ha]    energy [eV]
    1    0           1.0000        -0.238386        -6.4868


  Species: C

  List of occupied orbitals and eigenvalues:
    n    l              occ      energy [Ha]    energy [eV]
    1    0           2.0000       -10.049212      -273.4530
    2    0           2.0000        -0.504761       -13.7352
    2    1           2.0000        -0.193631        -5.2690

  Creating fixed part of basis set: Ionic, confined, hydrogenic.
 
  H                    hydrogenic:
 
  List of hydrogenic basis orbitals: 
    n    l      effective z      eigenvalue [eV]  inner max. [A]     outer max. [A]     outer radius [A]   
    2    0         2.100000       -14.9965           0.193243           1.317208           5.373006
    2    1         3.500000       -41.6672           0.602369           0.602369           4.056063
    1    0         0.850000        -9.8292           0.624871           0.624871           5.373006
    2    1         3.700000       -46.5653           0.573622           0.573622           3.910002
    2    0         1.200000        -4.5995           0.334980           2.228188           5.505995
    3    2         7.000000       -74.0753           0.680699           0.680699           3.769201
 
 
  C                    hydrogenic:
 
  List of hydrogenic basis orbitals: 
    n    l      effective z      eigenvalue [eV]  inner max. [A]     outer max. [A]     outer radius [A]   
    2    1         1.700000        -9.8152           1.245706           1.245706           5.401630
    3    2         6.000000       -54.4226           0.792453           0.792453           4.178599
    2    0         4.900000       -81.6681           0.082559           0.562749           3.353238
    4    3         9.800000       -81.6681           0.863254           0.863254           4.028125
    3    1         5.200000       -40.8774           0.305389           1.215618           4.898362
    3    0         4.300000       -27.9508           0.091041           1.610311           5.401630
    5    4        14.400000      -112.8510           0.917666           0.917666           3.883070
    3    2         6.200000       -58.1113           0.763917           0.763917           4.077671
 

  Adding cutoff potential to free-atom effective potential.
  Creating atomic-like basis functions for current effective potential.

  Species H                   :

  List of atomic basis orbitals and eigenvalues:
    n    l      energy [Ha]    energy [eV]    outer radius [A]
    1    0        -0.238386        -6.4868       5.373006


  Species C                   :

  List of atomic basis orbitals and eigenvalues:
    n    l      energy [Ha]    energy [eV]    outer radius [A]
    1    0       -10.049212      -273.4530       1.934409
    2    0        -0.504761       -13.7352       5.271162
    2    1        -0.193631        -5.2690       5.401630

  Assembling full basis from fixed parts.
  | Species H :   atomic orbital   1 s accepted.
  | Species H :    hydro orbital   2 s accepted.
  | Species H :    hydro orbital   1 s accepted.
  | Species H :    hydro orbital   2 s accepted.
  | Species H :    hydro orbital   2 p accepted.
  | Species H :    hydro orbital   2 p accepted.
  | Species H :    hydro orbital   3 d accepted.
  | Species C :   atomic orbital   1 s accepted.
  | Species C :    hydro orbital   2 s accepted.
  | Species C :   atomic orbital   2 s accepted.
  | Species C :    hydro orbital   3 s accepted.
  | Species C :    hydro orbital   3 p accepted.
  | Species C :   atomic orbital   2 p accepted.
  | Species C :    hydro orbital   2 p accepted.
  | Species C :    hydro orbital   3 d accepted.
  | Species C :    hydro orbital   3 d accepted.
  | Species C :    hydro orbital   4 f accepted.
  | Species C :    hydro orbital   5 g accepted.
 
  Basis size parameters after reduction:
  | Total number of radial functions:       18
  | Total number of basis functions :     1068
 
  Per-task memory consumption for arrays in subroutine allocate_ext:
  |           4.438696MB.
  Testing on-site integration grid accuracy.
  |  Species  Function  <phi|h_atom|phi> (log., in eV)  <phi|h_atom|phi> (rad., in eV)
           1        1                 -6.4870767962                 -6.4871688290
           1        2                 13.5032046589                 13.5028982997
           1        3                 32.8195184817                 32.8119941656
           1        4                 33.8513856511                 33.7670005767 ***
           1        5                 28.8544614965                 28.8544615203
           1        6                 59.6326952547                 59.6327656460
           1        7                 60.2719308513                 60.2719305949
           2        8               -273.4529726040               -273.4529710464
           2        9                -10.7721037319                -10.7721022101
           2       10                 17.6044132601                 17.6044162063
           2       11                 53.7706460658                 53.7706913770
           2       12                 15.0973290362                 15.0973256030
           2       13                  3.8545134692                  3.8545724687
           2       14                 12.1156992592                 12.1182024431
           2       15                 29.4352039302                 29.4352041816
           2       16                 54.8741144708                 54.8740268729
           2       17                 59.3556032049                 59.3556031382
           2       18                 93.4551837154                 93.4551838009
 * Note: Onsite integrals marked "***" above are less accurate than
 * onsite_accuracy_threshold =    0.03000 eV. Usually, this is harmless.
 * When in doubt, tighten the "radial" and/or "radial_multiplier" flags to check.

  Preparing densities etc. for the partition functions (integrals / Hartree potential).

  Preparations completed.
  max(cpu_time)          :      0.200 s.
  Wall clock time (cpu1) :      0.205 s.
------------------------------------------------------------

------------------------------------------------------------
          Begin self-consistency loop: Initialization.

          Date     :  20210620, Time     :  164654.562
------------------------------------------------------------

  Initializing index lists of integration centers etc. from given atomic structure:
  | Number of centers in hartree potential         :        36
  | Number of centers in hartree multipole         :        36
  | Number of centers in electron density summation:        36
  | Number of centers in basis integrals           :        36
  | Number of centers in integrals                 :        36
  | Number of centers in hamiltonian               :        36
  * Using 56 tasks for Scalapack Eigenvalue solver.
  Detailed listing of tasks and assigned k-points:
  (for non-periodic systems, the "k-point" denotes an internal label only)
   Task     0 k-point     1 on d021
   Task     1 k-point     1 on d021
   Task     2 k-point     1 on d021
   Task     3 k-point     1 on d021
   Task     4 k-point     1 on d021
   Task     5 k-point     1 on d021
   Task     6 k-point     1 on d021
   Task     7 k-point     1 on d021
   Task     8 k-point     1 on d021
   Task     9 k-point     1 on d021
   Task    10 k-point     1 on d021
   Task    11 k-point     1 on d021
   Task    12 k-point     1 on d021
   Task    13 k-point     1 on d021
   Task    14 k-point     1 on d021
   Task    15 k-point     1 on d021
   Task    16 k-point     1 on d021
   Task    17 k-point     1 on d021
   Task    18 k-point     1 on d021
   Task    19 k-point     1 on d021
   Task    20 k-point     1 on d021
   Task    21 k-point     1 on d021
   Task    22 k-point     1 on d021
   Task    23 k-point     1 on d021
   Task    24 k-point     1 on d021
   Task    25 k-point     1 on d021
   Task    26 k-point     1 on d021
   Task    27 k-point     1 on d021
   Task    28 k-point     1 on d021
   Task    29 k-point     1 on d021
   Task    30 k-point     1 on d021
   Task    31 k-point     1 on d021
   Task    32 k-point     1 on d021
   Task    33 k-point     1 on d021
   Task    34 k-point     1 on d021
   Task    35 k-point     1 on d021
   Task    36 k-point     1 on d021
   Task    37 k-point     1 on d021
   Task    38 k-point     1 on d021
   Task    39 k-point     1 on d021
   Task    40 k-point     1 on d021
   Task    41 k-point     1 on d021
   Task    42 k-point     1 on d021
   Task    43 k-point     1 on d021
   Task    44 k-point     1 on d021
   Task    45 k-point     1 on d021
   Task    46 k-point     1 on d021
   Task    47 k-point     1 on d021
   Task    48 k-point     1 on d021
   Task    49 k-point     1 on d021
   Task    50 k-point     1 on d021
   Task    51 k-point     1 on d021
   Task    52 k-point     1 on d021
   Task    53 k-point     1 on d021
   Task    54 k-point     1 on d021
   Task    55 k-point     1 on d021
  Tasks:    56 split into      8 X      7 BLACS grid
  Calculating block size based on n_basis =         1068 max_nprow =            8 max_npcol =            7
  ScaLAPACK block size set to:           16
  Allocating        0.184 MB for ovlp
  Allocating        0.184 MB for ham
  Allocating        0.184 MB for eigenvec
  Required Scalapack workspace - INTEGER:            1 REAL:             1
  Partitioning the integration grid into batches with parallel hashing+maxmin method.
  | Number of batches:     5326
  | Maximal batch size:     200
  | Minimal batch size:       1
  | Average batch size:     112.658
  | Standard deviation of batch sizes:      29.008

  Integration load balanced across     56 MPI tasks.
  Work distribution over tasks is as follows:
  Task      0 has      10869 integration points.
  Task      1 has      10787 integration points.
  Task      2 has      10628 integration points.
  Task      3 has      10894 integration points.
  Task      4 has      10538 integration points.
  Task      5 has      10725 integration points.
  Task      6 has      10690 integration points.
  Task      7 has      10797 integration points.
  Task      8 has      10792 integration points.
  Task      9 has      10645 integration points.
  Task     10 has      10757 integration points.
  Task     11 has      10613 integration points.
  Task     12 has      10724 integration points.
  Task     13 has      10639 integration points.
  Task     14 has      10830 integration points.
  Task     15 has      10777 integration points.
  Task     16 has      10668 integration points.
  Task     17 has      10758 integration points.
  Task     18 has      10718 integration points.
  Task     19 has      10746 integration points.
  Task     20 has      10623 integration points.
  Task     21 has      10739 integration points.
  Task     22 has      10723 integration points.
  Task     23 has      10717 integration points.
  Task     24 has      10747 integration points.
  Task     25 has      10622 integration points.
  Task     26 has      10721 integration points.
  Task     27 has      10578 integration points.
  Task     28 has      10769 integration points.
  Task     29 has      10825 integration points.
  Task     30 has      10655 integration points.
  Task     31 has      10789 integration points.
  Task     32 has      10619 integration points.
  Task     33 has      10741 integration points.
  Task     34 has      10629 integration points.
  Task     35 has      10758 integration points.
  Task     36 has      10793 integration points.
  Task     37 has      10673 integration points.
  Task     38 has      10764 integration points.
  Task     39 has      10653 integration points.
  Task     40 has      10792 integration points.
  Task     41 has      10592 integration points.
  Task     42 has      10778 integration points.
  Task     43 has      10799 integration points.
  Task     44 has      10667 integration points.
  Task     45 has      10805 integration points.
  Task     46 has      10614 integration points.
  Task     47 has      10734 integration points.
  Task     48 has      10604 integration points.
  Task     49 has      10854 integration points.
  Task     50 has      10707 integration points.
  Task     51 has      10596 integration points.
  Task     52 has      10720 integration points.
  Task     53 has      10657 integration points.
  Task     54 has      10684 integration points.
  Task     55 has      10680 integration points.
  Initializing partition tables, free-atom densities, potentials, etc. across the integration grid (initialize_grid_storage).
  | initialize_grid_storage: Actual outermost partition radius vs. multipole_radius_free
  | (-- VB: in principle, multipole_radius_free should be larger, hence this output)
  | Species        1: Confinement radius =              6.000000000000000 AA, multipole_radius_free =              6.071692442739658 AA.
  | Species        1: outer_partition_radius set to              6.071692442739658 AA .
  | Species        2: Confinement radius =              6.000000000000000 AA, multipole_radius_free =              6.029870734432609 AA.
  | Species        2: outer_partition_radius set to              6.029870734432609 AA .
  | The sparse table of interatomic distances needs     15.2680 kbyte instead of    10.3680 kbyte of memory.
  | Using the partition_type stratmann_smoother will reduce your memory usage.
  | Net number of integration points:   600016
  | of which are non-zero points    :   480589
  Renormalizing the initial density to the exact electron count on the 3D integration grid.
  | Initial density: Formal number of electrons (from input files) :     146.0000000000
  | Integrated number of electrons on 3D grid     :     145.9999577410
  | Charge integration error                      :      -0.0000422590
  | Normalization factor for density and gradient :       1.0000002894
  Obtaining max. number of non-zero basis functions in each batch (get_n_compute_maxes).
  | Maximal number of non-zero basis functions:      951
  Selecting the method for density update.
  Loop over occupied states selected for charge density update.
  Hamiltonian matrix size:
  | Size of matrix non-packed:                570846
  | Size of matrix packed:          560614
  Allocating        1.367 MB for KS_eigenvector
  use_local_index: Max. local matrix size =       542090
  Task:     0 matrix size:     143320
  Task:     1 matrix size:     201796
  Task:     2 matrix size:     359655
  Task:     3 matrix size:     158711
  Task:     4 matrix size:     234161
  Task:     5 matrix size:     338126
  Task:     6 matrix size:     435300
  Task:     7 matrix size:     212716
  Task:     8 matrix size:     259168
  Task:     9 matrix size:     275784
  Task:    10 matrix size:     408332
  Task:    11 matrix size:     510876
  Task:    12 matrix size:     516201
  Task:    13 matrix size:     491938
  Task:    14 matrix size:     274659
  Task:    15 matrix size:     164951
  Task:    16 matrix size:     257052
  Task:    17 matrix size:     522542
  Task:    18 matrix size:     514931
  Task:    19 matrix size:     480795
  Task:    20 matrix size:     395630
  Task:    21 matrix size:     294183
  Task:    22 matrix size:     131328
  Task:    23 matrix size:     224101
  Task:    24 matrix size:     414101
  Task:    25 matrix size:     322430
  Task:    26 matrix size:     245258
  Task:    27 matrix size:     169572
  Task:    28 matrix size:     240457
  Task:    29 matrix size:     230170
  Task:    30 matrix size:     390626
  Task:    31 matrix size:     117370
  Task:    32 matrix size:      87990
  Task:    33 matrix size:     238363
  Task:    34 matrix size:     254526
  Task:    35 matrix size:     455447
  Task:    36 matrix size:     464463
  Task:    37 matrix size:     525056
  Task:    38 matrix size:     329205
  Task:    39 matrix size:     208258
  Task:    40 matrix size:     193100
  Task:    41 matrix size:     327802
  Task:    42 matrix size:     542090
  Task:    43 matrix size:     430524
  Task:    44 matrix size:     456225
  Task:    45 matrix size:     487076
  Task:    46 matrix size:     351161
  Task:    47 matrix size:     254704
  Task:    48 matrix size:     202548
  Task:    49 matrix size:     439541
  Task:    50 matrix size:     373950
  Task:    51 matrix size:     273055
  Task:    52 matrix size:     191890
  Task:    53 matrix size:     148785
  Task:    54 matrix size:     119805
  Task:    55 matrix size:      83845
  Integrating Hamiltonian matrix: batch-based integration.
  Time summed over all CPUs for integration: real work       97.280 s, elapsed      184.726 s
  Time get_set_sparse_local_matrix_scalapack:     0.011528 s
  Start compute_balanced_batch_distribution
  Done load balancing, time needed:      0.006 s
  Integrating overlap matrix with loadbalancing
  Time summed over all CPUs for integration: real work       26.322 s, elapsed       30.117 s
  Time get_set_full_local_matrix_scalapack:     0.012081 s

  Updating Kohn-Sham eigenvalues and eigenvectors using ELSI and the ELPA eigensolver.
  Overlap matrix is not singular
  | Lowest and highest eigenvalues :  0.12E+02,  0.94E-04
  Finished singularity check of overlap matrix
  | Time :     0.056 s
  Finished Cholesky decomposition
  | Time :     0.012 s
  Finished transformation to standard eigenproblem
  | Time :     0.008 s
  Starting ELPA eigensolver
  Finished solving standard eigenproblem
  | Time :     0.055 s
  Finished back-transformation of eigenvectors
  | Time :     0.003 s

  Obtaining occupation numbers and chemical potential using ELSI.
  | Chemical potential (Fermi level):    -8.36525763 eV
  Writing Kohn-Sham eigenvalues.

  State    Occupation    Eigenvalue [Ha]    Eigenvalue [eV]
      1       2.00000         -10.176753         -276.92355
      2       2.00000         -10.176277         -276.91057
      3       2.00000         -10.176161         -276.90742
      4       2.00000         -10.176138         -276.90679
      5       2.00000         -10.175439         -276.88779
      6       2.00000         -10.175398         -276.88667
      7       2.00000         -10.174286         -276.85641
      8       2.00000         -10.173612         -276.83808
      9       2.00000         -10.173573         -276.83700
     10       2.00000         -10.173254         -276.82831
     11       2.00000         -10.173211         -276.82715
     12       2.00000         -10.172972         -276.82064
     13       2.00000         -10.172218         -276.80015
     14       2.00000         -10.171745         -276.78726
     15       2.00000         -10.167407         -276.66921
     16       2.00000         -10.167390         -276.66876
     17       2.00000         -10.164431         -276.58824
     18       2.00000         -10.164032         -276.57739
     19       2.00000         -10.163505         -276.56304
     20       2.00000         -10.163064         -276.55105
     21       2.00000         -10.158847         -276.43628
     22       2.00000         -10.157958         -276.41210
     23       2.00000          -1.019180          -27.73330
     24       2.00000          -1.005922          -27.37254
     25       2.00000          -0.987334          -26.86672
     26       2.00000          -0.964328          -26.24069
     27       2.00000          -0.941533          -25.62041
     28       2.00000          -0.918743          -25.00026
     29       2.00000          -0.897317          -24.41724
     30       2.00000          -0.885635          -24.09935
     31       2.00000          -0.879359          -23.92856
     32       2.00000          -0.862639          -23.47361
     33       2.00000          -0.857807          -23.34211
     34       2.00000          -0.782243          -21.28591
     35       2.00000          -0.780538          -21.23953
     36       2.00000          -0.764552          -20.80452
     37       2.00000          -0.758057          -20.62778
     38       2.00000          -0.751194          -20.44103
     39       2.00000          -0.719212          -19.57076
     40       2.00000          -0.694844          -18.90766
     41       2.00000          -0.678483          -18.46246
     42       2.00000          -0.668985          -18.20402
     43       2.00000          -0.663197          -18.04650
     44       2.00000          -0.644473          -17.53700
     45       2.00000          -0.640319          -17.42395
     46       2.00000          -0.621899          -16.92274
     47       2.00000          -0.611956          -16.65216
     48       2.00000          -0.605842          -16.48579
     49       2.00000          -0.589548          -16.04243
     50       2.00000          -0.584602          -15.90784
     51       2.00000          -0.576022          -15.67435
     52       2.00000          -0.575275          -15.65402
     53       2.00000          -0.569621          -15.50018
     54       2.00000          -0.566876          -15.42549
     55       2.00000          -0.557801          -15.17854
     56       2.00000          -0.534105          -14.53372
     57       2.00000          -0.533114          -14.50676
     58       2.00000          -0.523518          -14.24564
     59       2.00000          -0.523169          -14.23615
     60       2.00000          -0.515699          -14.03287
     61       2.00000          -0.509205          -13.85616
     62       2.00000          -0.501648          -13.65053
     63       2.00000          -0.494254          -13.44932
     64       2.00000          -0.482748          -13.13624
     65       2.00000          -0.481317          -13.09730
     66       2.00000          -0.470876          -12.81320
     67       2.00000          -0.444440          -12.09383
     68       2.00000          -0.431043          -11.72928
     69       2.00000          -0.422650          -11.50090
     70       2.00000          -0.402521          -10.95315
     71       2.00000          -0.386561          -10.51885
     72       2.00000          -0.369039          -10.04207
     73       2.00000          -0.363881           -9.90169
     74       0.00000          -0.251155           -6.83428
     75       0.00000          -0.247807           -6.74317
     76       0.00000          -0.228675           -6.22257
     77       0.00000          -0.207469           -5.64553
     78       0.00000          -0.188830           -5.13832
     79       0.00000          -0.169130           -4.60225
     80       0.00000          -0.160240           -4.36036
     81       0.00000          -0.119360           -3.24795
     82       0.00000          -0.090165           -2.45351
     83       0.00000          -0.071869           -1.95567
     84       0.00000          -0.065427           -1.78035
     85       0.00000          -0.064614           -1.75825
     86       0.00000          -0.054682           -1.48796
     87       0.00000          -0.051176           -1.39257
     88       0.00000          -0.043446           -1.18223
     89       0.00000          -0.036235           -0.98602
     90       0.00000          -0.031793           -0.86512
     91       0.00000          -0.026051           -0.70888
     92       0.00000          -0.018585           -0.50572
     93       0.00000          -0.016158           -0.43968
     94       0.00000          -0.010576           -0.28779
     95       0.00000          -0.004528           -0.12322
     96       0.00000           0.000506            0.01377
     97       0.00000           0.005893            0.16036
     98       0.00000           0.011098            0.30199
     99       0.00000           0.015941            0.43379
    100       0.00000           0.024883            0.67709
    101       0.00000           0.026680            0.72599
    102       0.00000           0.032419            0.88216
    103       0.00000           0.034631            0.94235
    104       0.00000           0.039665            1.07933
    105       0.00000           0.047541            1.29365
    106       0.00000           0.048514            1.32013
    107       0.00000           0.050517            1.37465
    108       0.00000           0.054604            1.48585
    109       0.00000           0.057862            1.57450
    110       0.00000           0.061718            1.67942
    111       0.00000           0.065141            1.77258
    112       0.00000           0.069709            1.89688
    113       0.00000           0.071547            1.94690
    114       0.00000           0.073768            2.00732
    115       0.00000           0.080380            2.18725
    116       0.00000           0.082616            2.24810
    117       0.00000           0.083764            2.27932
    118       0.00000           0.093466            2.54335
    119       0.00000           0.096860            2.63570
    120       0.00000           0.100162            2.72555
    121       0.00000           0.105365            2.86714
    122       0.00000           0.109426            2.97763
    123       0.00000           0.114487            3.11535
    124       0.00000           0.118961            3.23709
    125       0.00000           0.121410            3.30374
    126       0.00000           0.122174            3.32454
    127       0.00000           0.122494            3.33324
    128       0.00000           0.128842            3.50596
    129       0.00000           0.129879            3.53418
    130       0.00000           0.136020            3.70130
    131       0.00000           0.137154            3.73216
    132       0.00000           0.139148            3.78640
    133       0.00000           0.147105            4.00294
    134       0.00000           0.150770            4.10266
    135       0.00000           0.153834            4.18605
    136       0.00000           0.157578            4.28790
    137       0.00000           0.161273            4.38846
    138       0.00000           0.165228            4.49608
    139       0.00000           0.168735            4.59152
    140       0.00000           0.170946            4.65168
    141       0.00000           0.176484            4.80238
    142       0.00000           0.181065            4.92702
    143       0.00000           0.183405            4.99071
    144       0.00000           0.185384            5.04455
    145       0.00000           0.190390            5.18077
    146       0.00000           0.192369            5.23464
    147       0.00000           0.200567            5.45770
    148       0.00000           0.212620            5.78568
    149       0.00000           0.213402            5.80697
    150       0.00000           0.219578            5.97501
    151       0.00000           0.222022            6.04152
    152       0.00000           0.229726            6.25117
    153       0.00000           0.231384            6.29627
    154       0.00000           0.236521            6.43606
    155       0.00000           0.240552            6.54576
    156       0.00000           0.242414            6.59642
    157       0.00000           0.248692            6.76725
    158       0.00000           0.254026            6.91240
    159       0.00000           0.259018            7.04825
    160       0.00000           0.263536            7.17117

  Highest occupied state (VBM) at     -9.90169283 eV
  | Occupation number:      2.00000000

  Lowest unoccupied state (CBM) at    -6.83428399 eV
  | Occupation number:      0.00000000

  Overall HOMO-LUMO gap:      3.06740884 eV.
  Calculating total energy contributions from superposition of free atom densities.

  Total energy components:
  | Sum of eigenvalues            :        -513.52558314 Ha      -13973.74209333 eV
  | XC energy correction          :        -121.54294414 Ha       -3307.35178624 eV
  | XC potential correction       :         156.12203195 Ha        4248.29664026 eV
  | Free-atom electrostatic energy:        -368.55549918 Ha      -10028.90539783 eV
  | Hartree energy correction     :           0.00000000 Ha           0.00000000 eV
  | Entropy correction            :           0.00000000 Ha           0.00000000 eV
  | ---------------------------
  | Total energy                  :        -847.50199451 Ha      -23061.70263715 eV
  | Total energy, T -> 0          :        -847.50199451 Ha      -23061.70263715 eV  <-- do not rely on this value for anything but (periodic) metals
  | Electronic free energy        :        -847.50199451 Ha      -23061.70263715 eV

  Derived energy quantities:
  | Kinetic energy                :         839.47418267 Ha       22843.25476243 eV
  | Electrostatic energy          :       -1565.43323304 Ha      -42597.60561334 eV
  | Energy correction for multipole
  | error in Hartree potential    :           0.00000000 Ha           0.00000000 eV
  | Sum of eigenvalues per atom                           :        -388.15950259 eV
  | Total energy (T->0) per atom                          :        -640.60285103 eV  <-- do not rely on this value for anything but (periodic) metals
  | Electronic free energy per atom                       :        -640.60285103 eV
  Initialize hartree_potential_storage
  Max. number of atoms included in rho_multipole:           36

  End scf initialization - timings             :  max(cpu_time)    wall_clock(cpu1)
  | Time for scf. initialization               :        5.119 s           5.182 s
  | Boundary condition initialization          :        0.001 s           0.003 s
  | Integration                                :        3.879 s           3.885 s
  | Solution of K.-S. eqns.                    :        0.139 s           0.159 s
  | Grid partitioning                          :        0.540 s           0.544 s
  | Preloading free-atom quantities on grid    :        0.013 s           0.018 s
  | Free-atom superposition energy             :        0.044 s           0.044 s
  | Total energy evaluation                    :        0.001 s           0.005 s

  Partial memory accounting:
  | Current value for overall tracked memory usage on task 0  :           2.494 MB
  | Peak value for overall tracked memory usage on task 0     :          24.593 MB after allocating zora_vector2
  | Largest tracked array allocation on task 0 so far         :           7.235 MB  when allocating hamiltonian_shell
  Note:  These values currently only include a subset of arrays which are explicitly tracked.
  The "true" memory usage will be greater.
------------------------------------------------------------

------------------------------------------------------------
          Begin self-consistency iteration #    1

  Date     :  20210620, Time     :  164659.746
------------------------------------------------------------
  Evaluating new KS density.
  Integration grid: deviation in total charge (<rho> - N_e) =   8.526513E-14
  Pulay mixing of updated and previous charge densities.

  Evaluating partitioned Hartree potential by multipole expansion.
  | Analytical far-field extrapolation by fixed multipoles:
  | Hartree multipole sum: apparent total charge =  -0.492893E-04
  Summing up the Hartree potential with load balancing.
  Time summed over all CPUs for potential: real work       14.938 s, elapsed       25.774 s
  | RMS charge density error from multipole expansion :   0.112282E-01

  Start compute_balanced_batch_distribution
  Done load balancing, time needed:      0.005 s
  Integrating Hamiltonian matrix: batch-based integration with load balancing
  Time summed over all CPUs for integration: real work      107.067 s, elapsed      118.527 s
  Time get_set_full_local_matrix_scalapack:     0.012248 s
  Start compute_balanced_batch_distribution
  Done load balancing, time needed:      0.005 s

  Updating Kohn-Sham eigenvalues and eigenvectors using ELSI and the ELPA eigensolver.
  Finished transformation to standard eigenproblem
  | Time :     0.010 s
  Starting ELPA eigensolver
  Finished solving standard eigenproblem
  | Time :     0.053 s
  Finished back-transformation of eigenvectors
  | Time :     0.003 s

  Obtaining occupation numbers and chemical potential using ELSI.
  | Chemical potential (Fermi level):    -3.88299295 eV
  Writing Kohn-Sham eigenvalues.

  State    Occupation    Eigenvalue [Ha]    Eigenvalue [eV]
      1       2.00000          -9.992686         -271.91482
      2       2.00000          -9.991579         -271.88470
      3       2.00000          -9.977065         -271.48976
      4       2.00000          -9.976676         -271.47917
      5       2.00000          -9.976367         -271.47075
      6       2.00000          -9.971645         -271.34227
      7       2.00000          -9.970748         -271.31787
      8       2.00000          -9.965552         -271.17646
      9       2.00000          -9.950944         -270.77896
     10       2.00000          -9.949749         -270.74643
     11       2.00000          -9.948503         -270.71254
     12       2.00000          -9.947905         -270.69627
     13       2.00000          -9.946901         -270.66894
     14       2.00000          -9.946448         -270.65661
     15       2.00000          -9.944758         -270.61062
     16       2.00000          -9.943354         -270.57242
     17       2.00000          -9.940858         -270.50450
     18       2.00000          -9.940414         -270.49243
     19       2.00000          -9.939101         -270.45671
     20       2.00000          -9.938700         -270.44579
     21       2.00000          -9.938302         -270.43496
     22       2.00000          -9.937923         -270.42463
     23       2.00000          -0.873283          -23.76324
     24       2.00000          -0.851221          -23.16290
     25       2.00000          -0.830852          -22.60863
     26       2.00000          -0.806860          -21.95578
     27       2.00000          -0.785452          -21.37323
     28       2.00000          -0.774563          -21.07692
     29       2.00000          -0.747327          -20.33580
     30       2.00000          -0.735803          -20.02221
     31       2.00000          -0.725829          -19.75080
     32       2.00000          -0.711675          -19.36566
     33       2.00000          -0.704696          -19.17576
     34       2.00000          -0.638640          -17.37827
     35       2.00000          -0.636568          -17.32190
     36       2.00000          -0.617955          -16.81541
     37       2.00000          -0.610707          -16.61817
     38       2.00000          -0.609479          -16.58477
     39       2.00000          -0.579406          -15.76645
     40       2.00000          -0.557393          -15.16745
     41       2.00000          -0.539937          -14.69244
     42       2.00000          -0.534474          -14.54377
     43       2.00000          -0.512756          -13.95280
     44       2.00000          -0.507569          -13.81164
     45       2.00000          -0.502162          -13.66454
     46       2.00000          -0.478500          -13.02063
     47       2.00000          -0.475256          -12.93237
     48       2.00000          -0.463579          -12.61463
     49       2.00000          -0.447795          -12.18512
     50       2.00000          -0.444822          -12.10422
     51       2.00000          -0.441155          -12.00444
     52       2.00000          -0.439084          -11.94808
     53       2.00000          -0.433165          -11.78702
     54       2.00000          -0.430291          -11.70881
     55       2.00000          -0.416257          -11.32694
     56       2.00000          -0.411417          -11.19522
     57       2.00000          -0.403337          -10.97535
     58       2.00000          -0.397250          -10.80972
     59       2.00000          -0.383261          -10.42907
     60       2.00000          -0.383138          -10.42571
     61       2.00000          -0.370912          -10.09303
     62       2.00000          -0.367323           -9.99537
     63       2.00000          -0.359898           -9.79333
     64       2.00000          -0.346113           -9.41822
     65       2.00000          -0.345009           -9.38817
     66       2.00000          -0.340666           -9.26999
     67       2.00000          -0.315410           -8.58274
     68       2.00000          -0.308219           -8.38706
     69       2.00000          -0.294865           -8.02369
     70       2.00000          -0.274920           -7.48097
     71       2.00000          -0.254103           -6.91451
     72       2.00000          -0.240780           -6.55197
     73       2.00000          -0.236086           -6.42423
     74       0.00000          -0.125781           -3.42268
     75       0.00000          -0.124823           -3.39661
     76       0.00000          -0.100340           -2.73038
     77       0.00000          -0.080830           -2.19949
     78       0.00000          -0.062026           -1.68782
     79       0.00000          -0.048606           -1.32264
     80       0.00000          -0.035706           -0.97160
     81       0.00000          -0.026212           -0.71327
     82       0.00000          -0.020050           -0.54558
     83       0.00000          -0.019327           -0.52592
     84       0.00000          -0.008215           -0.22355
     85       0.00000          -0.002552           -0.06945
     86       0.00000           0.005842            0.15897
     87       0.00000           0.007783            0.21180
     88       0.00000           0.011359            0.30910
     89       0.00000           0.020533            0.55874
     90       0.00000           0.021907            0.59613
     91       0.00000           0.031392            0.85422
     92       0.00000           0.034360            0.93499
     93       0.00000           0.039398            1.07208
     94       0.00000           0.053199            1.44761
     95       0.00000           0.059246            1.61217
     96       0.00000           0.070371            1.91488
     97       0.00000           0.075694            2.05974
     98       0.00000           0.077263            2.10242
     99       0.00000           0.085050            2.31434
    100       0.00000           0.086937            2.36568
    101       0.00000           0.095487            2.59834
    102       0.00000           0.097149            2.64356
    103       0.00000           0.100170            2.72576
    104       0.00000           0.109697            2.98500
    105       0.00000           0.111135            3.02413
    106       0.00000           0.123624            3.36397
    107       0.00000           0.124423            3.38572
    108       0.00000           0.126573            3.44424
    109       0.00000           0.132093            3.59443
    110       0.00000           0.135995            3.70063
    111       0.00000           0.137348            3.73742
    112       0.00000           0.139746            3.80269
    113       0.00000           0.145784            3.96699
    114       0.00000           0.149615            4.07122
    115       0.00000           0.153030            4.16415
    116       0.00000           0.160531            4.36827
    117       0.00000           0.162310            4.41668
    118       0.00000           0.163531            4.44991
    119       0.00000           0.171511            4.66705
    120       0.00000           0.172330            4.68935
    121       0.00000           0.177204            4.82197
    122       0.00000           0.179822            4.89319
    123       0.00000           0.182298            4.96058
    124       0.00000           0.191327            5.20628
    125       0.00000           0.191933            5.22276
    126       0.00000           0.194884            5.30306
    127       0.00000           0.199828            5.43761
    128       0.00000           0.202714            5.51612
    129       0.00000           0.205021            5.57890
    130       0.00000           0.210747            5.73471
    131       0.00000           0.212028            5.76957
    132       0.00000           0.212586            5.78477
    133       0.00000           0.215297            5.85854
    134       0.00000           0.217547            5.91977
    135       0.00000           0.222760            6.06160
    136       0.00000           0.224063            6.09706
    137       0.00000           0.227540            6.19167
    138       0.00000           0.238788            6.49775
    139       0.00000           0.239797            6.52520
    140       0.00000           0.239905            6.52815
    141       0.00000           0.241463            6.57055
    142       0.00000           0.250010            6.80311
    143       0.00000           0.253402            6.89541
    144       0.00000           0.260333            7.08402
    145       0.00000           0.266367            7.24822
    146       0.00000           0.268650            7.31034
    147       0.00000           0.269754            7.34037
    148       0.00000           0.271796            7.39594
    149       0.00000           0.284226            7.73419
    150       0.00000           0.286155            7.78667
    151       0.00000           0.295264            8.03454
    152       0.00000           0.303459            8.25753
    153       0.00000           0.304830            8.29484
    154       0.00000           0.310669            8.45373
    155       0.00000           0.320450            8.71990
    156       0.00000           0.322149            8.76612
    157       0.00000           0.327786            8.91950
    158       0.00000           0.332788            9.05561
    159       0.00000           0.335790            9.13731
    160       0.00000           0.341728            9.29890

  Highest occupied state (VBM) at     -6.42422930 eV
  | Occupation number:      2.00000000

  Lowest unoccupied state (CBM) at    -3.42268325 eV
  | Occupation number:      0.00000000

  Overall HOMO-LUMO gap:      3.00154604 eV.

  Total energy components:
  | Sum of eigenvalues            :        -489.86678769 Ha      -13329.95351359 eV
  | XC energy correction          :        -123.14022128 Ha       -3350.81590873 eV
  | XC potential correction       :         158.19592142 Ha        4304.73004405 eV
  | Free-atom electrostatic energy:        -368.55549918 Ha      -10028.90539783 eV
  | Hartree energy correction     :         -23.35271270 Ha        -635.45964446 eV
  | Entropy correction            :           0.00000000 Ha           0.00000000 eV
  | ---------------------------
  | Total energy                  :        -846.71929944 Ha      -23040.40442056 eV
  | Total energy, T -> 0          :        -846.71929944 Ha      -23040.40442056 eV  <-- do not rely on this value for anything but (periodic) metals
  | Electronic free energy        :        -846.71929944 Ha      -23040.40442056 eV

  Derived energy quantities:
  | Kinetic energy                :         846.69932850 Ha       23039.86098364 eV
  | Electrostatic energy          :       -1570.27840665 Ha      -42729.44949547 eV
  | Energy correction for multipole
  | error in Hartree potential    :          -0.05428298 Ha          -1.47711494 eV
  | Sum of eigenvalues per atom                           :        -370.27648649 eV
  | Total energy (T->0) per atom                          :        -640.01123390 eV  <-- do not rely on this value for anything but (periodic) metals
  | Electronic free energy per atom                       :        -640.01123390 eV

  Self-consistency convergence accuracy:
  | Change of charge density      :  0.9447E+00
  | Change of sum of eigenvalues  :  0.6438E+03 eV
  | Change of total energy        :  0.2130E+02 eV

  End self-consistency iteration #     1       :  max(cpu_time)    wall_clock(cpu1)
  | Time for this iteration                    :        3.472 s           3.479 s
  | Charge density update                      :        0.763 s           0.765 s
  | Density mixing                             :        0.003 s           0.004 s
  | Hartree multipole update                   :        0.011 s           0.011 s
  | Hartree multipole summation                :        0.468 s           0.470 s
  | Integration                                :        2.121 s           2.122 s
  | Solution of K.-S. eqns.                    :        0.093 s           0.093 s
  | Total energy evaluation                    :        0.000 s           0.000 s

  Partial memory accounting:
  | Current value for overall tracked memory usage on task 0  :           2.494 MB
  | Peak value for overall tracked memory usage on task 0     :          24.884 MB after allocating zora_vector2
  | Largest tracked array allocation on task 0 so far         :           7.235 MB  when allocating hamiltonian_shell
  Note:  These values currently only include a subset of arrays which are explicitly tracked.
  The "true" memory usage will be greater.
------------------------------------------------------------

------------------------------------------------------------
          Begin self-consistency iteration #    2

  Date     :  20210620, Time     :  164703.233
------------------------------------------------------------
  Evaluating new KS density.
  Integration grid: deviation in total charge (<rho> - N_e) =   5.684342E-14
  Pulay mixing of updated and previous charge densities.

  Evaluating partitioned Hartree potential by multipole expansion.
  | Analytical far-field extrapolation by fixed multipoles:
  | Hartree multipole sum: apparent total charge =  -0.493645E-04
  Summing up the Hartree potential with load balancing.
  Time summed over all CPUs for potential: real work       15.047 s, elapsed       17.801 s
  | RMS charge density error from multipole expansion :   0.196630E-01

  Integrating Hamiltonian matrix: batch-based integration with load balancing
  Time summed over all CPUs for integration: real work      108.689 s, elapsed      112.107 s
  Time get_set_full_local_matrix_scalapack:     0.016569 s

  Updating Kohn-Sham eigenvalues and eigenvectors using ELSI and the ELPA eigensolver.
  Finished transformation to standard eigenproblem
  | Time :     0.009 s
  Starting ELPA eigensolver
  Finished solving standard eigenproblem
  | Time :     0.051 s
  Finished back-transformation of eigenvectors
  | Time :     0.002 s

  Obtaining occupation numbers and chemical potential using ELSI.
  | Chemical potential (Fermi level):    -3.04385070 eV
  Highest occupied state (VBM) at     -5.27732464 eV
  | Occupation number:      2.00000000

  Lowest unoccupied state (CBM) at    -2.25776471 eV
  | Occupation number:      0.00000000

  Overall HOMO-LUMO gap:      3.01955993 eV.

  Checking to see if s.c.f. parameters should be adjusted.

  Total energy components:
  | Sum of eigenvalues            :        -482.00244688 Ha      -13115.95391198 eV
  | XC energy correction          :        -123.83013532 Ha       -3369.58942484 eV
  | XC potential correction       :         159.08328150 Ha        4328.87634052 eV
  | Free-atom electrostatic energy:        -368.55549918 Ha      -10028.90539783 eV
  | Hartree energy correction     :         -31.31675514 Ha        -852.17226530 eV
  | Entropy correction            :           0.00000000 Ha           0.00000000 eV
  | ---------------------------
  | Total energy                  :        -846.62155501 Ha      -23037.74465944 eV
  | Total energy, T -> 0          :        -846.62155501 Ha      -23037.74465944 eV  <-- do not rely on this value for anything but (periodic) metals
  | Electronic free energy        :        -846.62155501 Ha      -23037.74465944 eV

  Derived energy quantities:
  | Kinetic energy                :         846.74014594 Ha       23040.97168280 eV
  | Electrostatic energy          :       -1569.53156564 Ha      -42709.12691739 eV
  | Energy correction for multipole
  | error in Hartree potential    :          -0.08767643 Ha          -2.38579698 eV
  | Sum of eigenvalues per atom                           :        -364.33205311 eV
  | Total energy (T->0) per atom                          :        -639.93735165 eV  <-- do not rely on this value for anything but (periodic) metals
  | Electronic free energy per atom                       :        -639.93735165 eV

  Self-consistency convergence accuracy:
  | Change of charge density      :  0.4599E+00
  | Change of sum of eigenvalues  :  0.2140E+03 eV
  | Change of total energy        :  0.2660E+01 eV

  End self-consistency iteration #     2       :  max(cpu_time)    wall_clock(cpu1)
  | Time for this iteration                    :        3.196 s           3.199 s
  | Charge density update                      :        0.759 s           0.758 s
  | Density mixing                             :        0.003 s           0.005 s
  | Hartree multipole update                   :        0.007 s           0.007 s
  | Hartree multipole summation                :        0.320 s           0.321 s
  | Integration                                :        2.005 s           2.005 s
  | Solution of K.-S. eqns.                    :        0.097 s           0.097 s
  | Total energy evaluation                    :        0.001 s           0.001 s

  Partial memory accounting:
  | Current value for overall tracked memory usage on task 0  :           2.494 MB
  | Peak value for overall tracked memory usage on task 0     :          24.938 MB after allocating zora_vector2
  | Largest tracked array allocation on task 0 so far         :           7.235 MB  when allocating hamiltonian_shell
  Note:  These values currently only include a subset of arrays which are explicitly tracked.
  The "true" memory usage will be greater.
------------------------------------------------------------

------------------------------------------------------------
          Begin self-consistency iteration #    3

  Date     :  20210620, Time     :  164706.435
------------------------------------------------------------
  Evaluating new KS density.
  Integration grid: deviation in total charge (<rho> - N_e) =   8.526513E-14
  Pulay mixing of updated and previous charge densities.

  Evaluating partitioned Hartree potential by multipole expansion.
  | Analytical far-field extrapolation by fixed multipoles:
  | Hartree multipole sum: apparent total charge =  -0.484922E-04
  Summing up the Hartree potential with load balancing.
  Time summed over all CPUs for potential: real work       15.049 s, elapsed       17.814 s
  | RMS charge density error from multipole expansion :   0.235563E-01

  Integrating Hamiltonian matrix: batch-based integration with load balancing
  Time summed over all CPUs for integration: real work      108.601 s, elapsed      111.979 s
  Time get_set_full_local_matrix_scalapack:     0.016561 s

  Updating Kohn-Sham eigenvalues and eigenvectors using ELSI and the ELPA eigensolver.
  Finished transformation to standard eigenproblem
  | Time :     0.008 s
  Starting ELPA eigensolver
  Finished solving standard eigenproblem
  | Time :     0.051 s
  Finished back-transformation of eigenvectors
  | Time :     0.003 s

  Obtaining occupation numbers and chemical potential using ELSI.
  | Chemical potential (Fermi level):    -3.05632539 eV
  Highest occupied state (VBM) at     -5.36812657 eV
[...]
  |------------------------------------------------------

------------------------------------------------------------
          Post-processing: scaled ZORA corrections to eigenvalues and total energy.

  Date     :  20210620, Time     :  164751.339
------------------------------------------------------------
  Computing correction matrix for scaled ZORA eigenvalues.
  Evaluating scaled zora correction for each Kohn-Sham eigenstate.
  Evaluating scaled zora correction for each Kohn-Sham eigenstate.
  Time get_set_sparse_local_matrix_scalapack:     2.705450 s
  Writing Kohn-Sham eigenvalues.

  State    Occupation    Eigenvalue [Ha]    Eigenvalue [eV]
      1       2.00000          -9.914624         -269.79065
      2       2.00000          -9.914023         -269.77429
      3       2.00000          -9.908619         -269.62725
      4       2.00000          -9.908396         -269.62116
      5       2.00000          -9.908086         -269.61273
      6       2.00000          -9.906225         -269.56210
      7       2.00000          -9.906114         -269.55907
      8       2.00000          -9.903663         -269.49239
      9       2.00000          -9.895837         -269.27943
     10       2.00000          -9.894841         -269.25233
     11       2.00000          -9.893902         -269.22677
     12       2.00000          -9.893725         -269.22197
     13       2.00000          -9.893642         -269.21970
     14       2.00000          -9.893009         -269.20247
     15       2.00000          -9.892934         -269.20042
     16       2.00000          -9.892357         -269.18474
     17       2.00000          -9.891961         -269.17395
     18       2.00000          -9.891511         -269.16172
     19       2.00000          -9.891187         -269.15288
     20       2.00000          -9.891117         -269.15098
     21       2.00000          -9.891055         -269.14931
     22       2.00000          -9.890867         -269.14419
     23       2.00000          -0.819801          -22.30791
     24       2.00000          -0.800479          -21.78214
     25       2.00000          -0.779961          -21.22381
     26       2.00000          -0.754972          -20.54384
     27       2.00000          -0.731227          -19.89770
     28       2.00000          -0.718826          -19.56024
     29       2.00000          -0.692693          -18.84915
     30       2.00000          -0.681937          -18.55645
     31       2.00000          -0.670999          -18.25880
     32       2.00000          -0.655776          -17.84457
     33       2.00000          -0.647957          -17.63182
     34       2.00000          -0.581616          -15.82658
     35       2.00000          -0.579040          -15.75648
     36       2.00000          -0.559152          -15.21530
     37       2.00000          -0.553369          -15.05793
     38       2.00000          -0.552211          -15.02643
     39       2.00000          -0.521164          -14.18160
     40       2.00000          -0.498491          -13.56463
     41       2.00000          -0.482188          -13.12101
     42       2.00000          -0.474751          -12.91864
     43       2.00000          -0.453644          -12.34427
     44       2.00000          -0.449628          -12.23501
     45       2.00000          -0.442403          -12.03840
     46       2.00000          -0.419165          -11.40607
     47       2.00000          -0.415565          -11.30810
     48       2.00000          -0.402250          -10.94578
     49       2.00000          -0.388893          -10.58233
     50       2.00000          -0.388043          -10.55917
     51       2.00000          -0.384443          -10.46123
     52       2.00000          -0.379549          -10.32805
     53       2.00000          -0.373443          -10.16189
     54       2.00000          -0.372506          -10.13640
     55       2.00000          -0.362802           -9.87234
     56       2.00000          -0.357288           -9.72229
     57       2.00000          -0.354733           -9.65279
     58       2.00000          -0.342330           -9.31528
     59       2.00000          -0.330357           -8.98946
     60       2.00000          -0.323463           -8.80189
     61       2.00000          -0.322889           -8.78626
     62       2.00000          -0.307996           -8.38101
     63       2.00000          -0.303189           -8.25019
     64       2.00000          -0.301607           -8.20714
     65       2.00000          -0.284821           -7.75038
     66       2.00000          -0.282845           -7.69660
     67       2.00000          -0.274083           -7.45817
     68       2.00000          -0.265626           -7.22805
     69       2.00000          -0.253925           -6.90965
     70       2.00000          -0.234877           -6.39133
     71       2.00000          -0.214063           -5.82495
     72       2.00000          -0.198484           -5.40102
     73       2.00000          -0.193886           -5.27590
     74       0.00000          -0.082857           -2.25466
     75       0.00000          -0.082558           -2.24650
     76       0.00000          -0.059562           -1.62077
     77       0.00000          -0.039160           -1.06561
     78       0.00000          -0.021606           -0.58793
     79       0.00000          -0.007230           -0.19674
     80       0.00000          -0.005668           -0.15424
     81       0.00000           0.000721            0.01962
     82       0.00000           0.001319            0.03588
     83       0.00000           0.008270            0.22503
     84       0.00000           0.013406            0.36480
     85       0.00000           0.018261            0.49691
     86       0.00000           0.027478            0.74771
     87       0.00000           0.031625            0.86055
     88       0.00000           0.040286            1.09625
     89       0.00000           0.041808            1.13766
     90       0.00000           0.047436            1.29079
     91       0.00000           0.056081            1.52605
     92       0.00000           0.056736            1.54387
     93       0.00000           0.073736            2.00646
     94       0.00000           0.074282            2.02132
     95       0.00000           0.083502            2.27221
     96       0.00000           0.089819            2.44410
     97       0.00000           0.104223            2.83606
     98       0.00000           0.105443            2.86925
     99       0.00000           0.114873            3.12587
    100       0.00000           0.115430            3.14100
    101       0.00000           0.122097            3.32244
    102       0.00000           0.122462            3.33237
    103       0.00000           0.130440            3.54946
    104       0.00000           0.136828            3.72328
    105       0.00000           0.140678            3.82804
    106       0.00000           0.146761            3.99358
    107       0.00000           0.150645            4.09925
    108       0.00000           0.152688            4.15485
    109       0.00000           0.157524            4.28644
    110       0.00000           0.167547            4.55920
    111       0.00000           0.169215            4.60457
    112       0.00000           0.170335            4.63504
    113       0.00000           0.176504            4.80292
    114       0.00000           0.184563            5.02223
    115       0.00000           0.185467            5.04683
    116       0.00000           0.189263            5.15010
    117       0.00000           0.193113            5.25487
    118       0.00000           0.194129            5.28252
    119       0.00000           0.202711            5.51603
    120       0.00000           0.205068            5.58019
    121       0.00000           0.213297            5.80412
    122       0.00000           0.214055            5.82474
    123       0.00000           0.214690            5.84201
    124       0.00000           0.220384            5.99696
    125       0.00000           0.222493            6.05435
    126       0.00000           0.225644            6.14007
    127       0.00000           0.226130            6.15330
    128       0.00000           0.232860            6.33645
    129       0.00000           0.235723            6.41436
    130       0.00000           0.237550            6.46405
    131       0.00000           0.240799            6.55248
    132       0.00000           0.242563            6.60048
    133       0.00000           0.245840            6.68963
    134       0.00000           0.251055            6.83155
    135       0.00000           0.259184            7.05274
    136       0.00000           0.264728            7.20361
    137       0.00000           0.265370            7.22108
    138       0.00000           0.268362            7.30250
    139       0.00000           0.269177            7.32467
    140       0.00000           0.277172            7.54222
    141       0.00000           0.280985            7.64599
    142       0.00000           0.283876            7.72467
    143       0.00000           0.286280            7.79008
    144       0.00000           0.294925            8.02532
    145       0.00000           0.295733            8.04729
    146       0.00000           0.297724            8.10147
    147       0.00000           0.300419            8.17483
    148       0.00000           0.304674            8.29061
    149       0.00000           0.311995            8.48980
    150       0.00000           0.312411            8.50115
    151       0.00000           0.327330            8.90711
    152       0.00000           0.331871            9.03066
    153       0.00000           0.332783            9.05550
    154       0.00000           0.343422            9.34498
    155       0.00000           0.350911            9.54877
    156       0.00000           0.357690            9.73324
    157       0.00000           0.360253            9.80300
    158       0.00000           0.365423            9.94366
    159       0.00000           0.366215            9.96522
    160       0.00000           0.373003           10.14992

  Highest occupied state (VBM) at     -5.27589993 eV
  | Occupation number:      2.00000000

  Lowest unoccupied state (CBM) at    -2.25466221 eV
  | Occupation number:      0.00000000

  Overall HOMO-LUMO gap:      3.02123772 eV.

  Total energy components:
  | Sum of eigenvalues            :        -481.80620138 Ha      -13110.61380031 eV
  | XC energy correction          :        -123.86687450 Ha       -3370.58914888 eV
  | XC potential correction       :         159.12521237 Ha        4330.01733755 eV
  | Free-atom electrostatic energy:        -368.55549918 Ha      -10028.90539783 eV
  | Hartree energy correction     :         -31.32497094 Ha        -852.39582863 eV
  | Entropy correction            :           0.00000000 Ha           0.00000000 eV
  | ---------------------------
  | Total energy                  :        -846.42833363 Ha      -23032.48683810 eV
  | Total energy, T -> 0          :        -846.42833363 Ha      -23032.48683810 eV  <-- do not rely on this value for anything but (periodic) metals
  | Electronic free energy        :        -846.42833363 Ha      -23032.48683810 eV

  Derived energy quantities:
  | Kinetic energy                :         844.44109762 Ha       22978.41139484 eV
  | Electrostatic energy          :       -1567.00255674 Ha      -42640.30908406 eV
  | Energy correction for multipole
  | error in Hartree potential    :          -0.10135904 Ha          -2.75811994 eV
  | Sum of eigenvalues per atom                           :        -364.18371668 eV
  | Total energy (T->0) per atom                          :        -639.79130106 eV  <-- do not rely on this value for anything but (periodic) metals
  | Electronic free energy per atom                       :        -639.79130106 eV
  End evaluation of scaled ZORA corrections.
  | Time for scaled ZORA corrections           :        3.642 s           3.642 s
------------------------------------------------------------

  Energy and forces in a compact form:
  | Total energy uncorrected      :         -0.230324868381011E+05 eV
  | Total energy corrected        :         -0.230324868381011E+05 eV  <-- do not rely on this value for anything but (periodic) metals
  | Electronic free energy        :         -0.230324868381011E+05 eV

  ------------------------------------ 
  Start decomposition of the XC Energy 
  ------------------------------------ 
  X and C from original XC functional choice 
  Hartree-Fock Energy :          0.000000000 Ha              0.000000000 eV
  X Energy            :       -118.976632974 Ha          -3237.518906382 eV
  C Energy            :         -4.890241527 Ha           -133.070242495 eV
  Total XC Energy     :       -123.866874502 Ha          -3370.589148877 eV
  ------------------------------------ 
  LDA X and C from self-consistent density 
  X Energy LDA        :       -107.758459859 Ha          -2932.256884355 eV
  C Energy LDA        :         -9.419431444 Ha           -256.315770794 eV
  ------------------------------------ 
  End decomposition of the XC Energy 
  ------------------------------------ 

------------------------------------------------------------

------------------------------------------------------------------------------
  Final output of selected total energy values:

  The following output summarizes some interesting total energy values
  at the end of a run (AFTER all relaxation, molecular dynamics, etc.).

  | Total energy of the DFT / Hartree-Fock s.c.f. calculation      :         -23032.486838101 eV
  | Final zero-broadening corrected energy (caution - metals only) :         -23032.486838101 eV
  | For reference only, the value of 1 Hartree used in FHI-aims is :             27.211384500 eV

  Before relying on these values, please be sure to understand exactly which
  total energy value is referred to by a given number. Different objects may
  all carry the same name 'total energy'. Definitions:

  Total energy of the DFT / Hartree-Fock s.c.f. calculation:
  | Note that this energy does not include ANY quantities calculated after the
  | s.c.f. cycle, in particular not ANY RPA, MP2, etc. many-body perturbation terms.
  | Scalar relativistic effects have been included in the 'scaled ZORA' approximation.

  Final zero-broadening corrected energy:
  | For metallic systems only, a broadening of the occupation numbers at the Fermi
  | level can be extrapolated back to zero broadening by an electron-gas inspired
  | formula. For all systems that are not real metals, this value can be
  | meaningless and should be avoided.

------------------------------------------------------------------------------
  Methods described in the following list of references were used in this FHI-aims run.
  If you publish the results, please make sure to cite these reference if they apply.
  FHI-aims is an academic code, and for our developers (often, Ph.D. students
  and postdocs), scientific credit in the community is essential.
  Thank you for helping us!

  For any use of FHI-aims, please cite:

    Volker Blum, Ralf Gehrke, Felix Hanke, Paula Havu, Ville Havu,
    Xinguo Ren, Karsten Reuter, and Matthias Scheffler
    'Ab initio molecular simulations with numeric atom-centered orbitals'
    Computer Physics Communications 180, 2175-2196 (2009)
    http://dx.doi.org/10.1016/j.cpc.2009.06.022


  The scalable eigensolver library ELPA was used in your run.
  ELPA is essential especially for large systems on hundreds or thousands of CPUs.
  For ELPA, please cite:

    Andreas Marek, Volker Blum, Rainer Johanni, Ville Havu, Bruno Lang,
    Thomas Auckenthaler, Alexander Heinecke, Hans-Joachim Bungartz, and Hermann Lederer,
    'The ELPA Library - Scalable Parallel Eigenvalue Solutions
    for Electronic Structure Theory and Computational Science'
    The Journal of Physics: Condensed Matter 26, 213201 (2014).
    http://dx.doi.org/10.1088/0953-8984/26/21/213201


  The ELSI infrastructure was used in your run to solve the Kohn-Sham electronic structure.
  Please check out http://elsi-interchange.org to learn more.
  If scalability is important for your project, please acknowledge ELSI by citing:

    V. W-z. Yu, F. Corsetti, A. Garcia, W. P. Huhn, M. Jacquelin, W. Jia,
    B. Lange, L. Lin, J. Lu, W. Mi, A. Seifitokaldani, A. Vazquez-Mayagoitia,
    C. Yang, H. Yang, and V. Blum
    'ELSI: A unified software interface for Kohn-Sham electronic structure solvers'
    Computer Physics Communications 222, 267-285 (2018).
    http://dx.doi.org/10.1016/j.cpc.2017.09.007


  For the real-space grid partitioning and parallelization used in this calculation, please cite:

    Ville Havu, Volker Blum, Paula Havu, and Matthias Scheffler,
    'Efficient O(N) integration for all-electron electronic structure calculation'
    'using numerically tabulated basis functions'
    Journal of Computational Physics 228, 8367-8379 (2009).
    http://dx.doi.org/10.1016/j.jcp.2009.08.008

  Of course, there are many other important community references, e.g., those cited in the
  above references. Our list is limited to references that describe implementations in the
  FHI-aims code. The reason is purely practical (length of this list) - please credit others as well.

------------------------------------------------------------
          Leaving FHI-aims.
          Date     :  20210620, Time     :  164755.032

          Computational steps:
          | Number of self-consistency cycles          :           16
          | Number of SCF (re)initializations          :            1

          Detailed time accounting                     :  max(cpu_time)    wall_clock(cpu1)
          | Total time                                 :       60.668 s          60.864 s
          | Preparation time                           :        0.200 s           0.205 s
          | Boundary condition initalization           :        0.001 s           0.003 s
          | Grid partitioning                          :        0.540 s           0.544 s
          | Preloading free-atom quantities on grid    :        0.013 s           0.018 s
          | Free-atom superposition energy             :        0.044 s           0.044 s
          | Total time for integrations                :       36.092 s          36.101 s
          | Total time for solution of K.-S. equations :        1.624 s           1.651 s
          | Total time for density update              :       12.300 s          12.263 s
          | Total time for mixing                      :        0.089 s           0.090 s
          | Total time for Hartree multipole update    :        0.119 s           0.124 s
          | Total time for Hartree multipole sum       :        5.272 s           5.274 s
          | Total time for total energy evaluation     :        0.010 s           0.032 s
          | Total time for scaled ZORA corrections     :        3.642 s           3.642 s

          Partial memory accounting:
          | Residual value for overall tracked memory usage across tasks :     0.000000 MB (should be 0.000000 MB)
          | Peak values for overall tracked memory usage (after allocating zora_vector2):
          |   Minimum:       24.117 MB (on task 33)
          |   Maximum:       29.317 MB (on task 43)
          |   Average:       26.908 MB
          | Largest tracked array allocation (hamiltonian_shell):
          |   Minimum:        7.235 MB (on task  1)
          |   Maximum:        7.235 MB (on task  1)
          |   Average:        7.235 MB
          Note:  These values currently only include a subset of arrays which are explicitly tracked.
          The "true" memory usage will be greater.

          Have a nice day.
------------------------------------------------------------
