  MPI-parallelism will be employed.
------------------------------------------------------------
          Invoking FHI-aims ...
          Version 180607
          Git rev. (modified): 6724847 Fix JSON memory corruption in scf_solver
          Compiled on 2018/06/27 at 16:00:31 on host coe.psc.edu.

          When using FHI-aims, please cite the following reference:

          Volker Blum, Ralf Gehrke, Felix Hanke, Paula Havu,
          Ville Havu, Xinguo Ren, Karsten Reuter, and Matthias Scheffler,
          'Ab Initio Molecular Simulations with Numeric Atom-Centered Orbitals',
          Computer Physics Communications 180, 2175-2196 (2009)

          For any questions about FHI-aims, please visit the aimsclub website
          with its forums and wiki. Contributions to both the forums and the
          wiki are warmly encouraged - they are for you, and everyone is welcome there.

------------------------------------------------------------



  Date     :  20210620, Time     :  171745.177
  Time zero on CPU 1             :   0.196985000000000E+00  s.
  Internal wall clock time zero  :           393441465.177  s.

  FHI-aims created a unique identifier for this run for later identification
  aims_uuid : 45536D8B-374D-4AE2-A78B-80B181F0927A

  Using       56 parallel tasks.
  Task        0 on host d021 reporting.
  Task        1 on host d021 reporting.
  Task        2 on host d021 reporting.
  Task        3 on host d021 reporting.
  Task        4 on host d021 reporting.
  Task        5 on host d021 reporting.
  Task        6 on host d021 reporting.
  Task        7 on host d021 reporting.
  Task        8 on host d021 reporting.
  Task        9 on host d021 reporting.
  Task       10 on host d021 reporting.
  Task       11 on host d021 reporting.
  Task       12 on host d021 reporting.
  Task       13 on host d021 reporting.
  Task       14 on host d021 reporting.
  Task       15 on host d021 reporting.
  Task       16 on host d021 reporting.
  Task       17 on host d021 reporting.
  Task       18 on host d021 reporting.
  Task       19 on host d021 reporting.
  Task       20 on host d021 reporting.
  Task       21 on host d021 reporting.
  Task       22 on host d021 reporting.
  Task       23 on host d021 reporting.
  Task       24 on host d021 reporting.
  Task       25 on host d021 reporting.
  Task       26 on host d021 reporting.
  Task       27 on host d021 reporting.
  Task       28 on host d021 reporting.
  Task       29 on host d021 reporting.
  Task       30 on host d021 reporting.
  Task       31 on host d021 reporting.
  Task       32 on host d021 reporting.
  Task       33 on host d021 reporting.
  Task       34 on host d021 reporting.
  Task       35 on host d021 reporting.
  Task       36 on host d021 reporting.
  Task       37 on host d021 reporting.
  Task       38 on host d021 reporting.
  Task       39 on host d021 reporting.
  Task       40 on host d021 reporting.
  Task       41 on host d021 reporting.
  Task       42 on host d021 reporting.
  Task       43 on host d021 reporting.
  Task       44 on host d021 reporting.
  Task       45 on host d021 reporting.
  Task       46 on host d021 reporting.
  Task       47 on host d021 reporting.
  Task       48 on host d021 reporting.
  Task       49 on host d021 reporting.
  Task       50 on host d021 reporting.
  Task       51 on host d021 reporting.
  Task       52 on host d021 reporting.
  Task       53 on host d021 reporting.
  Task       54 on host d021 reporting.
  Task       55 on host d021 reporting.

  Performing system and environment tests:
  *** Environment variable OMP_NUM_THREADS is not set
  *** For performance reasons you might want to set it to 1
  | Stacksize not measured: no C compiler
  | Checking for scalapack...
  | Testing pdtran()...
  | All pdtran() tests passed.

  Obtaining array dimensions for all initial allocations:
  
  -----------------------------------------------------------------------
  Parsing control.in (first pass over file, find array dimensions only).
  The contents of control.in will be repeated verbatim below
  unless switched off by setting 'verbatim_writeout .false.' .
  in the first line of control.in .
  -----------------------------------------------------------------------
  
  #===============================================================================
  # FHI-aims file: ./Runs/es/control.in
  # Created using the Atomic Simulation Environment (ASE)
  # Mon Jan 13 16:04:38 2020
  #===============================================================================
  xc                                 pbe
  relativistic                       zora scalar 1e-12
  occupation_type                    gaussian 0.0001
  load_balancing                     .true.
  KS_method                          scalapack_fast
  mixer                              pulay
  n_max_pulay                        5
  charge_mix_param                   0.4
  sc_accuracy_etot                   1e-6
  sc_accuracy_eev                    1e-4
  sc_accuracy_rho                    1e-6
  sc_iter_limit                      100
  prodbas_threshold                  1e-4
  basis_threshold                    1e-5
  override_illconditioning           .true.
  use_logsbt                         .true.
  spin                               none
  charge                             0
  #===============================================================================
  
  ################################################################################
  #
  #  FHI-aims code project
  # Volker Blum, Fritz Haber Institute Berlin, 2009
  #
  #  Suggested "tight" defaults for H atom (to be pasted into control.in file)
  #
  ################################################################################
    species        H
  #     global species definitions
      nucleus             1
      mass                1.00794
  #
      l_hartree           6
  #
      cut_pot             4.0  2.0  1.0
      basis_dep_cutoff    1e-4
  #
      radial_base         24 7.0
      radial_multiplier   2
      angular_grids       specified
        division   0.1930   50
        division   0.3175  110
        division   0.4293  194
        division   0.5066  302
        division   0.5626  434
  #      division   0.5922  590
  #      division   0.6227  974
  #      division   0.6868 1202
  #      outer_grid  770
        outer_grid  434
  ################################################################################
  #
  #  Definition of "minimal" basis
  #
  ################################################################################
  #     valence basis states
      valence      1  s   1.
  #     ion occupancy
      ion_occ      1  s   0.5
  ################################################################################
  #
  #  Suggested additional basis functions. For production calculations,
  #  uncomment them one after another (the most important basis functions are
  #  listed first).
  #
  #  Basis constructed for dimers: 0.5 A, 0.7 A, 1.0 A, 1.5 A, 2.5 A
  #
  ################################################################################
  #  "First tier" - improvements: -1014.90 meV to -62.69 meV
       hydro 2 s 2.1
       hydro 2 p 3.5
  #  "Second tier" - improvements: -12.89 meV to -1.83 meV
       hydro 1 s 0.85
       hydro 2 p 3.7
       hydro 2 s 1.2
       hydro 3 d 7
  #  "Third tier" - improvements: -0.25 meV to -0.12 meV
  #     hydro 4 f 11.2
  #     hydro 3 p 4.8
  #     hydro 4 d 9
  #     hydro 3 s 3.2
  ################################################################################
  #
  # For methods that use the localized form of the "resolution of identity" for
  # the two-electron Coulomb operator (RI_method LVL), particularly Hartree-Fock and
  # hybrid density functional calculations, the highest accuracy can be obtained by
  # uncommenting the line beginning with "for_aux"  below, thus adding an extra g radial
  # function to the construction of the product basis set for the expansion.
  # See Ref. New J. Phys. 17, 093020 (2015) for more information, particularly Figs. 1 and 6.
  #
  ################################################################################
  #
  # for_aux hydro 5 g 6.0
  ################################################################################
  #
  #  FHI-aims code project
  # Volker Blum, Fritz Haber Institute Berlin, 2009
  #
  #  Suggested "tight" defaults for C atom (to be pasted into control.in file)
  #
  ################################################################################
    species        C
  #     global species definitions
      nucleus             6
      mass                12.0107
  #
      l_hartree           6
  #
      cut_pot             4.0  2.0  1.0
      basis_dep_cutoff    1e-4
  #
      radial_base         34 7.0
      radial_multiplier   2
      angular_grids specified
        division   0.2187   50
        division   0.4416  110
        division   0.6335  194
        division   0.7727  302
        division   0.8772  434
  #      division   0.9334  590
  #      division   0.9924  770
  #      division   1.0230  974
  #      division   1.5020 1202
  #     outer_grid  974
        outer_grid  434
  ################################################################################
  #
  #  Definition of "minimal" basis
  #
  ################################################################################
  #     valence basis states
      valence      2  s   2.
      valence      2  p   2.
  #     ion occupancy
      ion_occ      2  s   1.
      ion_occ      2  p   1.
  ################################################################################
  #
  #  Suggested additional basis functions. For production calculations,
  #  uncomment them one after another (the most important basis functions are
  #  listed first).
  #
  #  Constructed for dimers: 1.0 A, 1.25 A, 1.5 A, 2.0 A, 3.0 A
  #
  ################################################################################
  #  "First tier" - improvements: -1214.57 meV to -155.61 meV
       hydro 2 p 1.7
       hydro 3 d 6
       hydro 2 s 4.9
  #  "Second tier" - improvements: -67.75 meV to -5.23 meV
       hydro 4 f 9.8
       hydro 3 p 5.2
       hydro 3 s 4.3
       hydro 5 g 14.4
       hydro 3 d 6.2
  #  "Third tier" - improvements: -2.43 meV to -0.60 meV
  #     hydro 2 p 5.6
  #     hydro 2 s 1.4
  #     hydro 3 d 4.9
  #     hydro 4 f 11.2
  #  "Fourth tier" - improvements: -0.39 meV to -0.18 meV
  #     hydro 2 p 2.1
  #     hydro 5 g 16.4
  #     hydro 4 d 13.2
  #     hydro 3 s 13.6
  #     hydro 4 f 17.6
  #  Further basis functions - improvements: -0.08 meV and below
  #     hydro 3 s 2
  #     hydro 3 p 6
  #     hydro 4 d 20
  ################################################################################
  #
  # For methods that use the localized form of the "resolution of identity" for
  # the two-electron Coulomb operator (RI_method LVL), particularly Hartree-Fock and
  # hybrid density functional calculations, the highest accuracy can be obtained by
  # uncommenting the line beginning with "for_aux"  below, thus adding an extra g radial
  # function to the construction of the product basis set for the expansion.
  # See Ref. New J. Phys. 17, 093020 (2015) for more information, particularly Figs. 1 and 6.
  #
  ################################################################################
  #
  # for_aux hydro 5 g 6.0
  
  -----------------------------------------------------------------------
  Completed first pass over input file control.in .
  -----------------------------------------------------------------------
  
  
  -----------------------------------------------------------------------
  Parsing geometry.in (first pass over file, find array dimensions only).
  The contents of geometry.in will be repeated verbatim below
  unless switched off by setting 'verbatim_writeout .false.' .
  in the first line of geometry.in .
  -----------------------------------------------------------------------
  
  #=======================================================
  # FHI-aims file: geometry.in
  # Created using the Atomic Simulation Environment (ASE)
  # Sun Jun 20 15:47:01 2021
  #=======================================================
  atom 17.4380029999999984 29.2019729999999988 43.8539320000000004 H
  atom 17.6511260000000014 29.1819829999999989 44.9235990000000029 C
  atom 17.7709909999999986 27.9612949999999998 45.5751479999999987 C
  atom 17.8107509999999998 30.3588759999999986 45.6067299999999989 C
  atom 17.6161889999999985 26.6496439999999986 44.8530540000000002 C
  atom 18.0205720000000014 27.9657869999999988 46.9317989999999980 C
  atom 17.7325470000000003 31.3040950000000002 45.0710389999999990 H
  atom 18.1085589999999996 30.3498920000000005 46.9523960000000002 C
  atom 16.2869360000000007 26.3093779999999988 44.3819000000000017 C
  atom 18.6673450000000010 25.7680979999999984 44.7152269999999987 C
  atom 18.0851529999999983 27.0095619999999990 47.4542739999999981 H
  atom 18.1849069999999990 29.1325719999999997 47.6320940000000022 C
  atom 18.2601930000000010 31.2802879999999988 47.4982139999999973 H
  atom 16.1213669999999993 25.1055349999999997 43.6223889999999983 C
  atom 15.1817589999999996 27.1347750000000012 44.5477050000000006 C
  atom 18.3815850000000012 24.3800840000000001 44.3367580000000032 C
  atom 20.0740599999999993 26.0903959999999984 45.0246950000000012 C
  atom 18.3947639999999986 29.1185350000000014 48.7009019999999992 H
  atom 14.8958180000000002 24.8551080000000013 42.9462949999999992 C
  atom 17.1852340000000012 24.1543630000000000 43.5293589999999995 C
  atom 13.9424910000000004 26.8158460000000005 43.9692750000000032 C
  atom 15.2768300000000004 28.0563000000000002 45.1190980000000010 H
  atom 19.1873480000000001 23.3738859999999988 44.8187259999999981 C
  atom 20.9349279999999993 25.0347860000000004 45.4380069999999989 C
  atom 20.6127290000000016 27.3672339999999998 44.8789719999999974 C
  atom 14.8019149999999993 23.7489640000000009 42.0949549999999988 C
  atom 13.7983049999999992 25.7355310000000017 43.1848760000000027 C
  atom 17.0227670000000018 23.0841549999999991 42.6476389999999981 C
  atom 13.0962619999999994 27.4803190000000015 44.1414309999999972 H
  atom 18.7674139999999987 21.9375840000000011 44.7756439999999998 C
  atom 20.4658699999999989 23.6827080000000016 45.4668429999999972 C
  atom 22.2634340000000002 25.3290089999999992 45.8281470000000013 C
  atom 20.0080199999999984 28.1794909999999987 44.4872879999999995 H
  atom 21.9362260000000013 27.6086759999999991 45.2153890000000018 C
  atom 13.8605509999999992 23.5711949999999995 41.5740249999999989 H
  atom 15.8615580000000005 22.9100919999999988 41.9318960000000018 C
  atom 12.8418679999999998 25.5048689999999993 42.7138929999999988 H
  atom 17.8378249999999987 22.3801530000000000 42.4995130000000003 H
  atom 17.6687130000000003 21.5288159999999991 45.5226260000000025 C
  atom 19.4529840000000007 20.9695670000000014 44.0533789999999996 C
  atom 21.2767170000000014 22.7079540000000009 46.0083699999999993 C
  atom 23.0533089999999987 24.2801380000000009 46.3619509999999977 C
  atom 22.7300630000000012 26.6518900000000016 45.6925510000000017 C
  atom 22.3176230000000011 28.6234089999999988 45.0887180000000001 H
  atom 15.7887679999999992 22.0672889999999988 41.2458469999999977 H
  atom 17.2645179999999989 20.2149189999999983 45.5020290000000003 C
  atom 17.1384639999999990 22.2551650000000016 46.1362430000000003 H
  atom 19.0301329999999993 19.6612860000000005 44.0550950000000014 C
  atom 20.3302809999999994 21.2469460000000012 43.4687699999999992 H
  atom 20.9322000000000017 21.6768259999999984 46.0490489999999966 H
  atom 22.5535190000000014 23.0257599999999982 46.4700839999999999 C
  atom 24.0674010000000003 24.5046229999999987 46.6961360000000028 H
  atom 23.7560169999999999 26.8691880000000012 45.9920639999999992 H
  atom 16.4036590000000011 19.9253000000000000 46.1084370000000021 H
  atom 17.9062349999999988 19.2906990000000000 44.7725549999999970 C
  atom 19.5751570000000008 18.9212360000000004 43.4694560000000010 H
  atom 23.1757880000000007 22.2369720000000015 46.8930080000000018 H
  atom 17.5760630000000013 18.2518220000000007 44.7718679999999978 H
  
  -----------------------------------------------------------------------
  Completed first pass over input file geometry.in .
  -----------------------------------------------------------------------
  

  Basic array size parameters:
  | Number of species                 :        2
  | Number of atoms                   :       58
  | Max. basis fn. angular momentum   :        4
  | Max. atomic/ionic basis occupied n:        2
  | Max. number of basis fn. types    :        2
  | Max. radial fns per species/type  :        8
  | Max. logarithmic grid size        :     1277
  | Max. radial integration grid size :       69
  | Max. angular integration grid size:      434
  | Max. angular grid division number :        8
  | Radial grid for Hartree potential :     1277
  | Number of spin channels           :        1

------------------------------------------------------------
          Reading file control.in.
------------------------------------------------------------
  XC: Using PBE gradient-corrected functionals.
  Scalar relativistic treatment of kinetic energy: ZORA.
  Threshold value for ZORA:   0.100000E-11
  Occupation type: Gaussian broadening, width =   0.100000E-03 eV.
  Since 'load_balancing .true.' is present in control.in, automatically turning on 'use_local_index .true.'.
  Using load balancing for integrations.
  Kohn-Sham electronic structure solved by the ELSI library.
  Using pulay charge density mixing.
  Pulay mixing - number of memorized iterations:    5
  Charge density mixing - mixing parameter:     0.4000
  Convergence accuracy of total energy:  0.1000E-05
  Convergence accuracy of sum of eigenvalues:  0.1000E-03
  Convergence accuracy of self-consistent charge density:  0.1000E-05
  Maximum number of s.-c. iterations  :   100
  * Ignoring prodbas_threshold
  Threshold for basis singularities:  0.1000E-04
  override_illconditioning: Explicitly overriding any built-in checks for an ill-conditioned overlap matrix.
  *** WARNING: If you use this flag, you should really know what you are doing.
  *** DO NOT keep this flag set by default in all your control.in files.
  Using 1D integrations for auxiliary 2-center integrals.
  Spin treatment: No spin polarisation.
  Charge =   0.000000E+00: Neutral system requested explicitly.
 
  Reading configuration options for species H                   .
  | Found nuclear charge :   1.0000
  | Found atomic mass :    1.00794000000000      amu
  | Found l_max for Hartree potential  :   6
  | Found cutoff potl. onset [A], width [A], scale factor :    4.00000    2.00000    1.00000
  | Threshold for basis-dependent cutoff potential is   0.100000E-03
  | Found data for basic radial integration grid :    24 points, outermost radius =    7.000 A
  | Found multiplier for basic radial grid :   2
  | Found angular grid specification: user-specified.
  | Specified grid contains     6 separate shells.
  | Check grid settings after all constraints further below.
  | Found free-atom valence shell :  1 s   1.000
  | No ionic wave fns used. Skipping ion_occ.
  | Found hydrogenic basis function :  2 s   2.100
  | Found hydrogenic basis function :  2 p   3.500
  | Found hydrogenic basis function :  1 s   0.850
  | Found hydrogenic basis function :  2 p   3.700
  | Found hydrogenic basis function :  2 s   1.200
  | Found hydrogenic basis function :  3 d   7.000
  Species H                   : Missing cutoff potential type.
  Defaulting to exp(1/x)/(1-x)^2 type cutoff potential.
  Species H : No 'logarithmic' tag. Using default grid for free atom:
  | Default logarithmic grid data [bohr] : 0.1000E-03 0.1000E+03 0.1012E+01
  Species H : On-site basis accuracy parameter (for Gram-Schmidt orthonormalisation) not specified.
  Using default value basis_acc =  0.1000000E-03.
  Species H                   : Using default innermost maximum threshold i_radial=  2 for radial functions.
  Species H                   : Default cutoff onset for free atom density etc. : 0.40000000E+01 AA.
  Species H                   : Basic radial grid will be enhanced according to radial_multiplier =   2, to contain    49 grid points.
 
  Reading configuration options for species C                   .
  | Found nuclear charge :   6.0000
  | Found atomic mass :    12.0107000000000      amu
  | Found l_max for Hartree potential  :   6
  | Found cutoff potl. onset [A], width [A], scale factor :    4.00000    2.00000    1.00000
  | Threshold for basis-dependent cutoff potential is   0.100000E-03
  | Found data for basic radial integration grid :    34 points, outermost radius =    7.000 A
  | Found multiplier for basic radial grid :   2
  | Found angular grid specification: user-specified.
  | Specified grid contains     6 separate shells.
  | Check grid settings after all constraints further below.
  | Found free-atom valence shell :  2 s   2.000
  | Found free-atom valence shell :  2 p   2.000
  | No ionic wave fns used. Skipping ion_occ.
  | No ionic wave fns used. Skipping ion_occ.
  | Found hydrogenic basis function :  2 p   1.700
  | Found hydrogenic basis function :  3 d   6.000
  | Found hydrogenic basis function :  2 s   4.900
  | Found hydrogenic basis function :  4 f   9.800
  | Found hydrogenic basis function :  3 p   5.200
  | Found hydrogenic basis function :  3 s   4.300
  | Found hydrogenic basis function :  5 g  14.400
  | Found hydrogenic basis function :  3 d   6.200
  Species C                   : Missing cutoff potential type.
  Defaulting to exp(1/x)/(1-x)^2 type cutoff potential.
  Species C : No 'logarithmic' tag. Using default grid for free atom:
  | Default logarithmic grid data [bohr] : 0.1000E-03 0.1000E+03 0.1012E+01
  Species C : On-site basis accuracy parameter (for Gram-Schmidt orthonormalisation) not specified.
  Using default value basis_acc =  0.1000000E-03.
  Species C                   : Using default innermost maximum threshold i_radial=  2 for radial functions.
  Species C                   : Default cutoff onset for free atom density etc. : 0.40000000E+01 AA.
  Species C                   : Basic radial grid will be enhanced according to radial_multiplier =   2, to contain    69 grid points.
 
  Finished reading input file 'control.in'. Consistency checks are next.
 
  MPI_IN_PLACE appears to work with this MPI implementation.
  | Keeping use_mpi_in_place .true. (see manual).
  Target number of points in a grid batch is not set. Defaulting to  100
  Method for grid partitioning is not set. Defaulting to parallel hash+maxmin partitioning.
  Batch size limit is not set. Defaulting to    200
  By default, will store active basis functions for each batch.
  If in need of memory, prune_basis_once .false. can be used to disable this option.
  communication_type for Hartree potential was not specified.
  Defaulting to calc_hartree .
  Pulay mixer: Number of initial linear mixing iterations not set.
  Defaulting to    0 iterations.
  Work space size for distributed Hartree potential not set.
  Defaulting to   0.200000E+03 MB.
  Algorithm-dependent basis array size parameters:
  | n_max_pulay                         :        5
  Presetting      1001 iterations before the initial mixing cycle
  is restarted anyway using the sc_init_iter criterion / keyword.
  Presetting a factor      1.000 between actual scf density residual
  and density convergence criterion sc_accuracy_rho below which sc_init_iter
  takes no effect.
  Calculation of forces was not defined in control.in. No forces will be calculated.
  Geometry relaxation not requested: no relaxation will be performed.
  No accuracy limit for integral partition fn. given. Defaulting to  0.1000E-14.
  No threshold value for u(r) in integrations given. Defaulting to  0.1000E-05.
  No accuracy for occupation numbers given. Defaulting to  0.1000E-12.
  No threshold value for occupation numbers given. Defaulting to  0.0000E+00.
  No accuracy for fermi level given. Defaulting to  0.1000E-19.
  Maximum # of iterations to find E_F not set. Defaulting to  200.
  Will not use alltoall communication since running on < 1024 CPUs.
  partition_type (choice of integration weights) for integrals was not specified.
  | Using a version of the partition function of Stratmann and coworkers ('stratmann_sparse').
  | At each grid point, the set of atoms used to build the partition table is smoothly restricted to
  | only those atoms whose free-atom density would be non-zero at that grid point.
  Partitioning for Hartree potential was not defined. Using partition_type for integrals.
  | Adjusted default value of keyword multip_moments_threshold to:       0.10000000E-11
  | This value may affect high angular momentum components of the Hartree potential in periodic systems.
  No q(lm)/r^(l+1) cutoff set for long-range Hartree potential.
  | Using default value of  0.100000E-09 .
  | Verify using the multipole_threshold keyword.
  Defaulting to new monopole extrapolation.
  Density update method: automatic selection selected.
 * Warning: use_local_index and/or load_balancing needs packed_matrix_format = index
 * Changing the default setting to packed_matrix_format = index
------------------------------------------------------------


------------------------------------------------------------
          Reading geometry description geometry.in.
------------------------------------------------------------
  Input structure read successfully.
  The structure contains       58 atoms,  and a total of        238.000 electrons.

  Input geometry:
  | No unit cell requested.
  | Atomic structure:
  |       Atom                x [A]            y [A]            z [A]
  |    1: Species H            17.43800300       29.20197300       43.85393200
  |    2: Species C            17.65112600       29.18198300       44.92359900
  |    3: Species C            17.77099100       27.96129500       45.57514800
  |    4: Species C            17.81075100       30.35887600       45.60673000
  |    5: Species C            17.61618900       26.64964400       44.85305400
  |    6: Species C            18.02057200       27.96578700       46.93179900
  |    7: Species H            17.73254700       31.30409500       45.07103900
  |    8: Species C            18.10855900       30.34989200       46.95239600
  |    9: Species C            16.28693600       26.30937800       44.38190000
  |   10: Species C            18.66734500       25.76809800       44.71522700
  |   11: Species H            18.08515300       27.00956200       47.45427400
  |   12: Species C            18.18490700       29.13257200       47.63209400
  |   13: Species H            18.26019300       31.28028800       47.49821400
  |   14: Species C            16.12136700       25.10553500       43.62238900
  |   15: Species C            15.18175900       27.13477500       44.54770500
  |   16: Species C            18.38158500       24.38008400       44.33675800
  |   17: Species C            20.07406000       26.09039600       45.02469500
  |   18: Species H            18.39476400       29.11853500       48.70090200
  |   19: Species C            14.89581800       24.85510800       42.94629500
  |   20: Species C            17.18523400       24.15436300       43.52935900
  |   21: Species C            13.94249100       26.81584600       43.96927500
  |   22: Species H            15.27683000       28.05630000       45.11909800
  |   23: Species C            19.18734800       23.37388600       44.81872600
  |   24: Species C            20.93492800       25.03478600       45.43800700
  |   25: Species C            20.61272900       27.36723400       44.87897200
  |   26: Species C            14.80191500       23.74896400       42.09495500
  |   27: Species C            13.79830500       25.73553100       43.18487600
  |   28: Species C            17.02276700       23.08415500       42.64763900
  |   29: Species H            13.09626200       27.48031900       44.14143100
  |   30: Species C            18.76741400       21.93758400       44.77564400
  |   31: Species C            20.46587000       23.68270800       45.46684300
  |   32: Species C            22.26343400       25.32900900       45.82814700
  |   33: Species H            20.00802000       28.17949100       44.48728800
  |   34: Species C            21.93622600       27.60867600       45.21538900
  |   35: Species H            13.86055100       23.57119500       41.57402500
  |   36: Species C            15.86155800       22.91009200       41.93189600
  |   37: Species H            12.84186800       25.50486900       42.71389300
  |   38: Species H            17.83782500       22.38015300       42.49951300
  |   39: Species C            17.66871300       21.52881600       45.52262600
  |   40: Species C            19.45298400       20.96956700       44.05337900
  |   41: Species C            21.27671700       22.70795400       46.00837000
  |   42: Species C            23.05330900       24.28013800       46.36195100
  |   43: Species C            22.73006300       26.65189000       45.69255100
  |   44: Species H            22.31762300       28.62340900       45.08871800
  |   45: Species H            15.78876800       22.06728900       41.24584700
  |   46: Species C            17.26451800       20.21491900       45.50202900
  |   47: Species H            17.13846400       22.25516500       46.13624300
  |   48: Species C            19.03013300       19.66128600       44.05509500
  |   49: Species H            20.33028100       21.24694600       43.46877000
  |   50: Species H            20.93220000       21.67682600       46.04904900
  |   51: Species C            22.55351900       23.02576000       46.47008400
  |   52: Species H            24.06740100       24.50462300       46.69613600
  |   53: Species H            23.75601700       26.86918800       45.99206400
  |   54: Species H            16.40365900       19.92530000       46.10843700
  |   55: Species C            17.90623500       19.29069900       44.77255500
  |   56: Species H            19.57515700       18.92123600       43.46945600
  |   57: Species H            23.17578800       22.23697200       46.89300800
  |   58: Species H            17.57606300       18.25182200       44.77186800
  |

  | The smallest distance between any two atoms is         1.08574894 AA.
  |
  | The first atom of this pair is atom number                     25 .
  | The second atom of this pair is atom number                    33 .

  Number of empty states per atom not set in control.in - providing a guess from actual geometry.
  | Total number of empty states used during s.c.f. cycle:      141
  If you use a very high smearing, use empty_states (per atom!) in control.in to increase this value.

  Structure-dependent array size parameters: 
  | Maximum number of distinct radial functions  :       18
  | Maximum number of basis functions            :     1734
  | Number of Kohn-Sham states (occupied + empty):      260
------------------------------------------------------------

------------------------------------------------------------
          Preparing all fixed parts of the calculation.
------------------------------------------------------------
  Determining machine precision:
    2.225073858507201E-308
  Setting up grids for atomic and cluster calculations.

  Creating wave function, potential, and density for free atoms.

  Species: H

  List of occupied orbitals and eigenvalues:
    n    l              occ      energy [Ha]    energy [eV]
    1    0           1.0000        -0.238386        -6.4868


  Species: C

  List of occupied orbitals and eigenvalues:
    n    l              occ      energy [Ha]    energy [eV]
    1    0           2.0000       -10.049212      -273.4530
    2    0           2.0000        -0.504761       -13.7352
    2    1           2.0000        -0.193631        -5.2690

  Creating fixed part of basis set: Ionic, confined, hydrogenic.
 
  H                    hydrogenic:
 
  List of hydrogenic basis orbitals: 
    n    l      effective z      eigenvalue [eV]  inner max. [A]     outer max. [A]     outer radius [A]   
    2    0         2.100000       -14.9965           0.193243           1.317208           5.373006
    2    1         3.500000       -41.6672           0.602369           0.602369           4.056063
    1    0         0.850000        -9.8292           0.624871           0.624871           5.373006
    2    1         3.700000       -46.5653           0.573622           0.573622           3.910002
    2    0         1.200000        -4.5995           0.334980           2.228188           5.505995
    3    2         7.000000       -74.0753           0.680699           0.680699           3.769201
 
 
  C                    hydrogenic:
 
  List of hydrogenic basis orbitals: 
    n    l      effective z      eigenvalue [eV]  inner max. [A]     outer max. [A]     outer radius [A]   
    2    1         1.700000        -9.8152           1.245706           1.245706           5.401630
    3    2         6.000000       -54.4226           0.792453           0.792453           4.178599
    2    0         4.900000       -81.6681           0.082559           0.562749           3.353238
    4    3         9.800000       -81.6681           0.863254           0.863254           4.028125
    3    1         5.200000       -40.8774           0.305389           1.215618           4.898362
    3    0         4.300000       -27.9508           0.091041           1.610311           5.401630
    5    4        14.400000      -112.8510           0.917666           0.917666           3.883070
    3    2         6.200000       -58.1113           0.763917           0.763917           4.077671
 

  Adding cutoff potential to free-atom effective potential.
  Creating atomic-like basis functions for current effective potential.

  Species H                   :

  List of atomic basis orbitals and eigenvalues:
    n    l      energy [Ha]    energy [eV]    outer radius [A]
    1    0        -0.238386        -6.4868       5.373006


  Species C                   :

  List of atomic basis orbitals and eigenvalues:
    n    l      energy [Ha]    energy [eV]    outer radius [A]
    1    0       -10.049212      -273.4530       1.934409
    2    0        -0.504761       -13.7352       5.271162
    2    1        -0.193631        -5.2690       5.401630

  Assembling full basis from fixed parts.
  | Species H :   atomic orbital   1 s accepted.
  | Species H :    hydro orbital   2 s accepted.
  | Species H :    hydro orbital   1 s accepted.
  | Species H :    hydro orbital   2 s accepted.
  | Species H :    hydro orbital   2 p accepted.
  | Species H :    hydro orbital   2 p accepted.
  | Species H :    hydro orbital   3 d accepted.
  | Species C :   atomic orbital   1 s accepted.
  | Species C :    hydro orbital   2 s accepted.
  | Species C :   atomic orbital   2 s accepted.
  | Species C :    hydro orbital   3 s accepted.
  | Species C :    hydro orbital   3 p accepted.
  | Species C :   atomic orbital   2 p accepted.
  | Species C :    hydro orbital   2 p accepted.
  | Species C :    hydro orbital   3 d accepted.
  | Species C :    hydro orbital   3 d accepted.
  | Species C :    hydro orbital   4 f accepted.
  | Species C :    hydro orbital   5 g accepted.
 
  Basis size parameters after reduction:
  | Total number of radial functions:       18
  | Total number of basis functions :     1734
 
  Per-task memory consumption for arrays in subroutine allocate_ext:
  |           4.453776MB.
  Testing on-site integration grid accuracy.
  |  Species  Function  <phi|h_atom|phi> (log., in eV)  <phi|h_atom|phi> (rad., in eV)
           1        1                 -6.4870767962                 -6.4871688290
           1        2                 13.5032046589                 13.5028982997
           1        3                 32.8195184817                 32.8119941656
           1        4                 33.8513856511                 33.7670005767 ***
           1        5                 28.8544614965                 28.8544615203
           1        6                 59.6326952547                 59.6327656460
           1        7                 60.2719308513                 60.2719305949
           2        8               -273.4529726040               -273.4529710464
           2        9                -10.7721037319                -10.7721022101
           2       10                 17.6044132601                 17.6044162063
           2       11                 53.7706460658                 53.7706913770
           2       12                 15.0973290362                 15.0973256030
           2       13                  3.8545134692                  3.8545724687
           2       14                 12.1156992592                 12.1182024431
           2       15                 29.4352039302                 29.4352041816
           2       16                 54.8741144708                 54.8740268729
           2       17                 59.3556032049                 59.3556031382
           2       18                 93.4551837154                 93.4551838009
 * Note: Onsite integrals marked "***" above are less accurate than
 * onsite_accuracy_threshold =    0.03000 eV. Usually, this is harmless.
 * When in doubt, tighten the "radial" and/or "radial_multiplier" flags to check.

  Preparing densities etc. for the partition functions (integrals / Hartree potential).

  Preparations completed.
  max(cpu_time)          :      0.190 s.
  Wall clock time (cpu1) :      0.176 s.
------------------------------------------------------------

------------------------------------------------------------
          Begin self-consistency loop: Initialization.

          Date     :  20210620, Time     :  171745.551
------------------------------------------------------------

  Initializing index lists of integration centers etc. from given atomic structure:
  | Number of centers in hartree potential         :        58
  | Number of centers in hartree multipole         :        58
  | Number of centers in electron density summation:        58
  | Number of centers in basis integrals           :        58
  | Number of centers in integrals                 :        58
  | Number of centers in hamiltonian               :        58
  * Using 56 tasks for Scalapack Eigenvalue solver.
  Detailed listing of tasks and assigned k-points:
  (for non-periodic systems, the "k-point" denotes an internal label only)
   Task     0 k-point     1 on d021
   Task     1 k-point     1 on d021
   Task     2 k-point     1 on d021
   Task     3 k-point     1 on d021
   Task     4 k-point     1 on d021
   Task     5 k-point     1 on d021
   Task     6 k-point     1 on d021
   Task     7 k-point     1 on d021
   Task     8 k-point     1 on d021
   Task     9 k-point     1 on d021
   Task    10 k-point     1 on d021
   Task    11 k-point     1 on d021
   Task    12 k-point     1 on d021
   Task    13 k-point     1 on d021
   Task    14 k-point     1 on d021
   Task    15 k-point     1 on d021
   Task    16 k-point     1 on d021
   Task    17 k-point     1 on d021
   Task    18 k-point     1 on d021
   Task    19 k-point     1 on d021
   Task    20 k-point     1 on d021
   Task    21 k-point     1 on d021
   Task    22 k-point     1 on d021
   Task    23 k-point     1 on d021
   Task    24 k-point     1 on d021
   Task    25 k-point     1 on d021
   Task    26 k-point     1 on d021
   Task    27 k-point     1 on d021
   Task    28 k-point     1 on d021
   Task    29 k-point     1 on d021
   Task    30 k-point     1 on d021
   Task    31 k-point     1 on d021
   Task    32 k-point     1 on d021
   Task    33 k-point     1 on d021
   Task    34 k-point     1 on d021
   Task    35 k-point     1 on d021
   Task    36 k-point     1 on d021
   Task    37 k-point     1 on d021
   Task    38 k-point     1 on d021
   Task    39 k-point     1 on d021
   Task    40 k-point     1 on d021
   Task    41 k-point     1 on d021
   Task    42 k-point     1 on d021
   Task    43 k-point     1 on d021
   Task    44 k-point     1 on d021
   Task    45 k-point     1 on d021
   Task    46 k-point     1 on d021
   Task    47 k-point     1 on d021
   Task    48 k-point     1 on d021
   Task    49 k-point     1 on d021
   Task    50 k-point     1 on d021
   Task    51 k-point     1 on d021
   Task    52 k-point     1 on d021
   Task    53 k-point     1 on d021
   Task    54 k-point     1 on d021
   Task    55 k-point     1 on d021
  Tasks:    56 split into      8 X      7 BLACS grid
  Calculating block size based on n_basis =         1734 max_nprow =            8 max_npcol =            7
  ScaLAPACK block size set to:           16
  Allocating        0.459 MB for ovlp
  Allocating        0.459 MB for ham
  Allocating        0.459 MB for eigenvec
  Required Scalapack workspace - INTEGER:            1 REAL:             1
  Partitioning the integration grid into batches with parallel hashing+maxmin method.
  | Number of batches:     8641
  | Maximal batch size:     200
  | Minimal batch size:       2
  | Average batch size:     112.106
  | Standard deviation of batch sizes:      35.978

  Integration load balanced across     56 MPI tasks.
  Work distribution over tasks is as follows:
  Task      0 has      17420 integration points.
  Task      1 has      17412 integration points.
  Task      2 has      17270 integration points.
  Task      3 has      17350 integration points.
  Task      4 has      17317 integration points.
  Task      5 has      17254 integration points.
  Task      6 has      17205 integration points.
  Task      7 has      17365 integration points.
  Task      8 has      17390 integration points.
  Task      9 has      17201 integration points.
  Task     10 has      17335 integration points.
  Task     11 has      17322 integration points.
  Task     12 has      17244 integration points.
  Task     13 has      17213 integration points.
  Task     14 has      17359 integration points.
  Task     15 has      17421 integration points.
  Task     16 has      17132 integration points.
  Task     17 has      17353 integration points.
  Task     18 has      17281 integration points.
  Task     19 has      17301 integration points.
  Task     20 has      17232 integration points.
  Task     21 has      17442 integration points.
  Task     22 has      17267 integration points.
  Task     23 has      17260 integration points.
  Task     24 has      17301 integration points.
  Task     25 has      17235 integration points.
  Task     26 has      17290 integration points.
  Task     27 has      17218 integration points.
  Task     28 has      17523 integration points.
  Task     29 has      17274 integration points.
  Task     30 has      17263 integration points.
  Task     31 has      17388 integration points.
  Task     32 has      17248 integration points.
  Task     33 has      17256 integration points.
  Task     34 has      17229 integration points.
  Task     35 has      17355 integration points.
  Task     36 has      17324 integration points.
  Task     37 has      17245 integration points.
  Task     38 has      17341 integration points.
  Task     39 has      17323 integration points.
  Task     40 has      17317 integration points.
  Task     41 has      17153 integration points.
  Task     42 has      17320 integration points.
  Task     43 has      17351 integration points.
  Task     44 has      17276 integration points.
  Task     45 has      17392 integration points.
  Task     46 has      17207 integration points.
  Task     47 has      17382 integration points.
  Task     48 has      17202 integration points.
  Task     49 has      17382 integration points.
  Task     50 has      17375 integration points.
  Task     51 has      17127 integration points.
  Task     52 has      17378 integration points.
  Task     53 has      17262 integration points.
  Task     54 has      17278 integration points.
  Task     55 has      17147 integration points.
  Initializing partition tables, free-atom densities, potentials, etc. across the integration grid (initialize_grid_storage).
  | initialize_grid_storage: Actual outermost partition radius vs. multipole_radius_free
  | (-- VB: in principle, multipole_radius_free should be larger, hence this output)
  | Species        1: Confinement radius =              6.000000000000000 AA, multipole_radius_free =              6.071692442739658 AA.
  | Species        1: outer_partition_radius set to              6.071692442739658 AA .
  | Species        2: Confinement radius =              6.000000000000000 AA, multipole_radius_free =              6.029870734432609 AA.
  | Species        2: outer_partition_radius set to              6.029870734432609 AA .
  | The sparse table of interatomic distances needs     39.9080 kbyte instead of    26.9120 kbyte of memory.
  | Using the partition_type stratmann_smoother will reduce your memory usage.
  | Net number of integration points:   968708
  | of which are non-zero points    :   762716
  Renormalizing the initial density to the exact electron count on the 3D integration grid.
  | Initial density: Formal number of electrons (from input files) :     238.0000000000
  | Integrated number of electrons on 3D grid     :     237.9998441819
  | Charge integration error                      :      -0.0001558181
  | Normalization factor for density and gradient :       1.0000006547
  Obtaining max. number of non-zero basis functions in each batch (get_n_compute_maxes).
  | Maximal number of non-zero basis functions:     1155
  Selecting the method for density update.
  Loop over occupied states selected for charge density update.
  Hamiltonian matrix size:
  | Size of matrix non-packed:               1504245
  | Size of matrix packed:         1353990
  Allocating        3.607 MB for KS_eigenvector
  use_local_index: Max. local matrix size =      1071141
  Task:     0 matrix size:     356265
  Task:     1 matrix size:     428549
  Task:     2 matrix size:     589147
  Task:     3 matrix size:     243143
  Task:     4 matrix size:     399707
  Task:     5 matrix size:     690305
  Task:     6 matrix size:     843251
  Task:     7 matrix size:     318143
  Task:     8 matrix size:     284578
  Task:     9 matrix size:     230841
  Task:    10 matrix size:     855543
  Task:    11 matrix size:     842831
  Task:    12 matrix size:     989485
  Task:    13 matrix size:     960253
  Task:    14 matrix size:     331053
  Task:    15 matrix size:     347112
  Task:    16 matrix size:     362354
  Task:    17 matrix size:     959170
  Task:    18 matrix size:     993366
  Task:    19 matrix size:     759906
  Task:    20 matrix size:     792663
  Task:    21 matrix size:     533609
  Task:    22 matrix size:     381297
  Task:    23 matrix size:     323817
  Task:    24 matrix size:     985573
  Task:    25 matrix size:     848627
  Task:    26 matrix size:     322858
  Task:    27 matrix size:     166143
  Task:    28 matrix size:     274603
  Task:    29 matrix size:     302464
  Task:    30 matrix size:     313952
  Task:    31 matrix size:     721147
  Task:    32 matrix size:     849240
  Task:    33 matrix size:     638677
  Task:    34 matrix size:     353712
  Task:    35 matrix size:     915771
  Task:    36 matrix size:     746153
  Task:    37 matrix size:     871780
  Task:    38 matrix size:     303806
  Task:    39 matrix size:     387574
  Task:    40 matrix size:     402621
  Task:    41 matrix size:     189420
  Task:    42 matrix size:    1071141
  Task:    43 matrix size:     843942
  Task:    44 matrix size:     772078
  Task:    45 matrix size:     763225
  Task:    46 matrix size:     394701
  Task:    47 matrix size:     456012
  Task:    48 matrix size:     276629
  Task:    49 matrix size:     866054
  Task:    50 matrix size:     382234
  Task:    51 matrix size:     213531
  Task:    52 matrix size:     703344
  Task:    53 matrix size:     219397
  Task:    54 matrix size:     553357
  Task:    55 matrix size:     336127
  Integrating Hamiltonian matrix: batch-based integration.
  Time summed over all CPUs for integration: real work      204.113 s, elapsed      387.862 s
  Time get_set_sparse_local_matrix_scalapack:     0.021310 s
  Start compute_balanced_batch_distribution
  Done load balancing, time needed:      0.009 s
  Integrating overlap matrix with loadbalancing
  Time summed over all CPUs for integration: real work       59.114 s, elapsed       69.889 s
  Time get_set_full_local_matrix_scalapack:     0.023947 s

  Updating Kohn-Sham eigenvalues and eigenvectors using ELSI and the ELPA eigensolver.
  Overlap matrix is not singular
  | Lowest and highest eigenvalues :  0.13E+02,  0.89E-04
  Finished singularity check of overlap matrix
  | Time :     0.120 s
  Finished Cholesky decomposition
  | Time :     0.025 s
  Finished transformation to standard eigenproblem
  | Time :     0.020 s
  Starting ELPA eigensolver
  Finished solving standard eigenproblem
  | Time :     0.125 s
  Finished back-transformation of eigenvectors
  | Time :     0.005 s

  Obtaining occupation numbers and chemical potential using ELSI.
  | Chemical potential (Fermi level):    -8.08661429 eV
  Writing Kohn-Sham eigenvalues.

  State    Occupation    Eigenvalue [Ha]    Eigenvalue [eV]
      1       2.00000         -10.181694         -277.05800
      2       2.00000         -10.181357         -277.04883
      3       2.00000         -10.180215         -277.01775
      4       2.00000         -10.178141         -276.96131
      5       2.00000         -10.177991         -276.95724
      6       2.00000         -10.176600         -276.91937
      7       2.00000         -10.176131         -276.90660
      8       2.00000         -10.175996         -276.90294
      9       2.00000         -10.175847         -276.89888
     10       2.00000         -10.174754         -276.86914
     11       2.00000         -10.174658         -276.86653
     12       2.00000         -10.174246         -276.85532
     13       2.00000         -10.174025         -276.84931
     14       2.00000         -10.174008         -276.84885
     15       2.00000         -10.173496         -276.83490
     16       2.00000         -10.173153         -276.82557
     17       2.00000         -10.172996         -276.82130
     18       2.00000         -10.172683         -276.81279
     19       2.00000         -10.172484         -276.80737
     20       2.00000         -10.171944         -276.79267
     21       2.00000         -10.171763         -276.78775
     22       2.00000         -10.169313         -276.72108
     23       2.00000         -10.168548         -276.70027
     24       2.00000         -10.167768         -276.67905
     25       2.00000         -10.167185         -276.66318
     26       2.00000         -10.166327         -276.63983
     27       2.00000         -10.165172         -276.60840
     28       2.00000         -10.164490         -276.58984
     29       2.00000         -10.164366         -276.58646
     30       2.00000         -10.163214         -276.55513
     31       2.00000         -10.162631         -276.53925
     32       2.00000         -10.162208         -276.52775
     33       2.00000         -10.161015         -276.49528
     34       2.00000         -10.158934         -276.43865
     35       2.00000         -10.157684         -276.40464
     36       2.00000         -10.157140         -276.38985
     37       2.00000          -1.023198          -27.84262
     38       2.00000          -1.013574          -27.58076
     39       2.00000          -1.009992          -27.48329
     40       2.00000          -1.004931          -27.34556
     41       2.00000          -0.973396          -26.48746
     42       2.00000          -0.970660          -26.41299
     43       2.00000          -0.968663          -26.35865
     44       2.00000          -0.933261          -25.39532
     45       2.00000          -0.916145          -24.92958
     46       2.00000          -0.903570          -24.58740
     47       2.00000          -0.893693          -24.31861
     48       2.00000          -0.892779          -24.29376
     49       2.00000          -0.886224          -24.11538
     50       2.00000          -0.884776          -24.07599
     51       2.00000          -0.880921          -23.97109
     52       2.00000          -0.877677          -23.88281
     53       2.00000          -0.865326          -23.54672
     54       2.00000          -0.836094          -22.75127
     55       2.00000          -0.795420          -21.64448
     56       2.00000          -0.777416          -21.15456
     57       2.00000          -0.772837          -21.02997
     58       2.00000          -0.769395          -20.93630
     59       2.00000          -0.762391          -20.74571
     60       2.00000          -0.754052          -20.51881
     61       2.00000          -0.753535          -20.50473
     62       2.00000          -0.748950          -20.37996
     63       2.00000          -0.743815          -20.24024
     64       2.00000          -0.726078          -19.75760
     65       2.00000          -0.710778          -19.34126
     66       2.00000          -0.676920          -18.41994
     67       2.00000          -0.676489          -18.40820
     68       2.00000          -0.665457          -18.10800
     69       2.00000          -0.659978          -17.95892
     70       2.00000          -0.654054          -17.79771
     71       2.00000          -0.651561          -17.72987
     72       2.00000          -0.648381          -17.64336
     73       2.00000          -0.639147          -17.39208
     74       2.00000          -0.636099          -17.30914
     75       2.00000          -0.634686          -17.27069
     76       2.00000          -0.631644          -17.18791
     77       2.00000          -0.608854          -16.56777
     78       2.00000          -0.605687          -16.48159
     79       2.00000          -0.594846          -16.18659
     80       2.00000          -0.592982          -16.13586
     81       2.00000          -0.591322          -16.09069
     82       2.00000          -0.589465          -16.04016
     83       2.00000          -0.576336          -15.68289
     84       2.00000          -0.574817          -15.64157
     85       2.00000          -0.570319          -15.51916
     86       2.00000          -0.569255          -15.49022
     87       2.00000          -0.567832          -15.45151
     88       2.00000          -0.565201          -15.37991
     89       2.00000          -0.550068          -14.96812
     90       2.00000          -0.544882          -14.82700
     91       2.00000          -0.542003          -14.74865
     92       2.00000          -0.535588          -14.57410
     93       2.00000          -0.530311          -14.43051
     94       2.00000          -0.529017          -14.39529
     95       2.00000          -0.528163          -14.37205
     96       2.00000          -0.512970          -13.95862
     97       2.00000          -0.512463          -13.94483
     98       2.00000          -0.510301          -13.88600
     99       2.00000          -0.506522          -13.78317
    100       2.00000          -0.502600          -13.67645
    101       2.00000          -0.498345          -13.56067
    102       2.00000          -0.496035          -13.49780
    103       2.00000          -0.494704          -13.46159
    104       2.00000          -0.491182          -13.36573
    105       2.00000          -0.481905          -13.11331
    106       2.00000          -0.478382          -13.01743
    107       2.00000          -0.475556          -12.94052
    108       2.00000          -0.471097          -12.81920
    109       2.00000          -0.441050          -12.00159
    110       2.00000          -0.416206          -11.32553
    111       2.00000          -0.410664          -11.17474
    112       2.00000          -0.410624          -11.17364
    113       2.00000          -0.408155          -11.10646
    114       2.00000          -0.404858          -11.01675
    115       2.00000          -0.399548          -10.87225
    116       2.00000          -0.397909          -10.82767
    117       2.00000          -0.393318          -10.70274
    118       2.00000          -0.377130          -10.26222
    119       2.00000          -0.334943           -9.11426
    120       0.00000          -0.278917           -7.58972
    121       0.00000          -0.236000           -6.42189
    122       0.00000          -0.221954           -6.03966
    123       0.00000          -0.216802           -5.89949
    124       0.00000          -0.215907           -5.87512
    125       0.00000          -0.214063           -5.82495
    126       0.00000          -0.212561           -5.78407
    127       0.00000          -0.209041           -5.68830
    128       0.00000          -0.203965           -5.55016
    129       0.00000          -0.181806           -4.94720
    130       0.00000          -0.162087           -4.41062
    131       0.00000          -0.116242           -3.16310
    132       0.00000          -0.115541           -3.14404
    133       0.00000          -0.105459           -2.86968
    134       0.00000          -0.078516           -2.13654
    135       0.00000          -0.075124           -2.04423
    136       0.00000          -0.070907           -1.92949
    137       0.00000          -0.067220           -1.82916
    138       0.00000          -0.066106           -1.79884
    139       0.00000          -0.065131           -1.77230
    140       0.00000          -0.054716           -1.48890
    141       0.00000          -0.053100           -1.44493
    142       0.00000          -0.043775           -1.19118
    143       0.00000          -0.041777           -1.13682
    144       0.00000          -0.037749           -1.02720
    145       0.00000          -0.033442           -0.91001
    146       0.00000          -0.031211           -0.84930
    147       0.00000          -0.029762           -0.80988
    148       0.00000          -0.028552           -0.77695
    149       0.00000          -0.023340           -0.63511
    150       0.00000          -0.016993           -0.46240
    151       0.00000          -0.011824           -0.32174
    152       0.00000          -0.008963           -0.24390
    153       0.00000          -0.007928           -0.21573
    154       0.00000          -0.006202           -0.16875
    155       0.00000          -0.005747           -0.15638
    156       0.00000          -0.002333           -0.06349
    157       0.00000           0.000723            0.01966
    158       0.00000           0.005921            0.16112
    159       0.00000           0.011731            0.31922
    160       0.00000           0.013208            0.35941
    161       0.00000           0.014517            0.39503
    162       0.00000           0.018128            0.49329
    163       0.00000           0.019963            0.54322
    164       0.00000           0.024409            0.66421
    165       0.00000           0.027256            0.74167
    166       0.00000           0.028436            0.77377
    167       0.00000           0.033482            0.91108
    168       0.00000           0.040853            1.11167
    169       0.00000           0.044484            1.21048
    170       0.00000           0.046855            1.27499
    171       0.00000           0.047371            1.28904
    172       0.00000           0.048569            1.32164
    173       0.00000           0.054923            1.49454
    174       0.00000           0.055690            1.51540
    175       0.00000           0.057123            1.55438
    176       0.00000           0.060209            1.63837
    177       0.00000           0.060789            1.65415
    178       0.00000           0.063425            1.72589
    179       0.00000           0.064540            1.75623
    180       0.00000           0.071084            1.93428
    181       0.00000           0.071776            1.95312
    182       0.00000           0.072192            1.96444
    183       0.00000           0.074909            2.03838
    184       0.00000           0.078133            2.12612
    185       0.00000           0.079851            2.17286
    186       0.00000           0.081984            2.23090
    187       0.00000           0.083607            2.27508
    188       0.00000           0.089552            2.43684
    189       0.00000           0.092740            2.52359
    190       0.00000           0.093866            2.55423
    191       0.00000           0.095065            2.58685
    192       0.00000           0.096952            2.63819
    193       0.00000           0.099006            2.69410
    194       0.00000           0.102101            2.77830
    195       0.00000           0.104824            2.85240
    196       0.00000           0.105984            2.88396
    197       0.00000           0.108229            2.94507
    198       0.00000           0.109627            2.98309
    199       0.00000           0.111066            3.02227
    200       0.00000           0.113041            3.07600
    201       0.00000           0.115829            3.15185
    202       0.00000           0.119779            3.25935
    203       0.00000           0.120843            3.28830
    204       0.00000           0.122747            3.34012
    205       0.00000           0.125954            3.42739
    206       0.00000           0.129279            3.51786
    207       0.00000           0.132636            3.60921
    208       0.00000           0.134792            3.66786
    209       0.00000           0.137141            3.73179
    210       0.00000           0.138549            3.77012
    211       0.00000           0.139441            3.79438
    212       0.00000           0.141888            3.86096
    213       0.00000           0.144933            3.94384
    214       0.00000           0.147500            4.01368
    215       0.00000           0.150136            4.08540
    216       0.00000           0.151001            4.10894
    217       0.00000           0.153179            4.16822
    218       0.00000           0.154672            4.20883
    219       0.00000           0.159527            4.34094
    220       0.00000           0.160603            4.37023
    221       0.00000           0.163017            4.43591
    222       0.00000           0.165546            4.50474
    223       0.00000           0.167099            4.54699
    224       0.00000           0.171868            4.67678
    225       0.00000           0.174602            4.75116
    226       0.00000           0.175228            4.76820
    227       0.00000           0.179150            4.87493
    228       0.00000           0.180237            4.90449
    229       0.00000           0.183130            4.98323
    230       0.00000           0.184850            5.03002
    231       0.00000           0.186543            5.07609
    232       0.00000           0.188349            5.12525
    233       0.00000           0.190696            5.18911
    234       0.00000           0.194458            5.29148
    235       0.00000           0.195487            5.31946
    236       0.00000           0.203649            5.54156
    237       0.00000           0.205320            5.58705
    238       0.00000           0.205808            5.60031
    239       0.00000           0.212566            5.78421
    240       0.00000           0.215250            5.85726
    241       0.00000           0.217139            5.90866
    242       0.00000           0.218122            5.93540
    243       0.00000           0.223314            6.07667
    244       0.00000           0.227418            6.18835
    245       0.00000           0.227888            6.20114
    246       0.00000           0.228930            6.22950
    247       0.00000           0.235303            6.40291
    248       0.00000           0.236100            6.42461
    249       0.00000           0.238942            6.50194
    250       0.00000           0.241509            6.57178
    251       0.00000           0.247360            6.73100
    252       0.00000           0.248438            6.76035
    253       0.00000           0.250856            6.82615
    254       0.00000           0.253163            6.88892
    255       0.00000           0.261848            7.12524
    256       0.00000           0.264800            7.20559
    257       0.00000           0.266666            7.25635
    258       0.00000           0.270907            7.37176
    259       0.00000           0.272253            7.40839
    260       0.00000           0.274654            7.47371

  Highest occupied state (VBM) at     -9.11426257 eV
  | Occupation number:      2.00000000

  Lowest unoccupied state (CBM) at    -7.58971700 eV
  | Occupation number:      0.00000000

  Overall HOMO-LUMO gap:      1.52454557 eV.
  Calculating total energy contributions from superposition of free atom densities.

  Total energy components:
  | Sum of eigenvalues            :        -839.91511616 Ha      -22855.25317325 eV
  | XC energy correction          :        -198.66832376 Ha       -5406.04014578 eV
  | XC potential correction       :         255.19495291 Ha        6944.20798616 eV
  | Free-atom electrostatic energy:        -602.84877715 Ha      -16404.34987041 eV
  | Hartree energy correction     :           0.00000000 Ha           0.00000000 eV
  | Entropy correction            :           0.00000000 Ha           0.00000000 eV
  | ---------------------------
  | Total energy                  :       -1386.23726416 Ha      -37721.43520328 eV
  | Total energy, T -> 0          :       -1386.23726416 Ha      -37721.43520328 eV  <-- do not rely on this value for anything but (periodic) metals
  | Electronic free energy        :       -1386.23726416 Ha      -37721.43520328 eV

  Derived energy quantities:
  | Kinetic energy                :        1373.50815584 Ha       37375.05854244 eV
  | Electrostatic energy          :       -2561.07709624 Ha      -69690.45359994 eV
  | Energy correction for multipole
  | error in Hartree potential    :           0.00000000 Ha           0.00000000 eV
  | Sum of eigenvalues per atom                           :        -394.05608919 eV
  | Total energy (T->0) per atom                          :        -650.36957247 eV  <-- do not rely on this value for anything but (periodic) metals
  | Electronic free energy per atom                       :        -650.36957247 eV
  Initialize hartree_potential_storage
  Max. number of atoms included in rho_multipole:           58

  End scf initialization - timings             :  max(cpu_time)    wall_clock(cpu1)
  | Time for scf. initialization               :       11.091 s          11.169 s
  | Boundary condition initialization          :        0.001 s           0.004 s
  | Integration                                :        8.252 s           8.258 s
  | Solution of K.-S. eqns.                    :        0.317 s           0.341 s
  | Grid partitioning                          :        1.242 s           1.248 s
  | Preloading free-atom quantities on grid    :        0.013 s           0.017 s
  | Free-atom superposition energy             :        0.092 s           0.094 s
  | Total energy evaluation                    :        0.001 s           0.004 s

  Partial memory accounting:
  | Current value for overall tracked memory usage on task 0  :           6.409 MB
  | Peak value for overall tracked memory usage on task 0     :          36.591 MB after allocating zora_vector2
  | Largest tracked array allocation on task 0 so far         :          10.672 MB  when allocating hamiltonian_shell
  Note:  These values currently only include a subset of arrays which are explicitly tracked.
  The "true" memory usage will be greater.
------------------------------------------------------------

------------------------------------------------------------
          Begin self-consistency iteration #    1

  Date     :  20210620, Time     :  171756.722
------------------------------------------------------------
  Evaluating new KS density.
  Integration grid: deviation in total charge (<rho> - N_e) =   1.136868E-13
  Pulay mixing of updated and previous charge densities.

  Evaluating partitioned Hartree potential by multipole expansion.
  | Analytical far-field extrapolation by fixed multipoles:
  | Hartree multipole sum: apparent total charge =  -0.167563E-03
  Summing up the Hartree potential with load balancing.
  Time summed over all CPUs for potential: real work       35.162 s, elapsed       54.580 s
  | RMS charge density error from multipole expansion :   0.144579E-01

  Start compute_balanced_batch_distribution
  Done load balancing, time needed:      0.008 s
  Integrating Hamiltonian matrix: batch-based integration with load balancing
  Time summed over all CPUs for integration: real work      225.131 s, elapsed      262.478 s
  Time get_set_full_local_matrix_scalapack:     0.024047 s
  Start compute_balanced_batch_distribution
  Done load balancing, time needed:      0.008 s

  Updating Kohn-Sham eigenvalues and eigenvectors using ELSI and the ELPA eigensolver.
  Finished transformation to standard eigenproblem
  | Time :     0.022 s
  Starting ELPA eigensolver
  Finished solving standard eigenproblem
  | Time :     0.123 s
  Finished back-transformation of eigenvectors
  | Time :     0.005 s

  Obtaining occupation numbers and chemical potential using ELSI.
  | Chemical potential (Fermi level):    -4.75204889 eV
  Writing Kohn-Sham eigenvalues.

  State    Occupation    Eigenvalue [Ha]    Eigenvalue [eV]
      1       2.00000          -9.999743         -272.10685
      2       2.00000          -9.997625         -272.04922
      3       2.00000          -9.997091         -272.03469
      4       2.00000          -9.996021         -272.00557
      5       2.00000          -9.984324         -271.68729
      6       2.00000          -9.982797         -271.64574
      7       2.00000          -9.981368         -271.60684
      8       2.00000          -9.980741         -271.58977
      9       2.00000          -9.974694         -271.42524
     10       2.00000          -9.974529         -271.42073
     11       2.00000          -9.973655         -271.39697
     12       2.00000          -9.971472         -271.33755
     13       2.00000          -9.965085         -271.16375
     14       2.00000          -9.964873         -271.15799
     15       2.00000          -9.948690         -270.71764
     16       2.00000          -9.947169         -270.67623
     17       2.00000          -9.945931         -270.64256
     18       2.00000          -9.945130         -270.62075
     19       2.00000          -9.944868         -270.61361
     20       2.00000          -9.944400         -270.60088
     21       2.00000          -9.943636         -270.58010
     22       2.00000          -9.943445         -270.57491
     23       2.00000          -9.942792         -270.55714
     24       2.00000          -9.942504         -270.54929
     25       2.00000          -9.941816         -270.53057
     26       2.00000          -9.941527         -270.52271
     27       2.00000          -9.941111         -270.51139
     28       2.00000          -9.940929         -270.50645
     29       2.00000          -9.940479         -270.49420
     30       2.00000          -9.939346         -270.46337
     31       2.00000          -9.938479         -270.43977
     32       2.00000          -9.936778         -270.39348
     33       2.00000          -9.935523         -270.35933
     34       2.00000          -9.934778         -270.33907
     35       2.00000          -9.932306         -270.27179
     36       2.00000          -9.930699         -270.22808
     37       2.00000          -0.882981          -24.02714
     38       2.00000          -0.861708          -23.44827
     39       2.00000          -0.847576          -23.06372
     40       2.00000          -0.842488          -22.92527
     41       2.00000          -0.826448          -22.48880
     42       2.00000          -0.816331          -22.21349
     43       2.00000          -0.810125          -22.04463
     44       2.00000          -0.787099          -21.41805
     45       2.00000          -0.769746          -20.94586
     46       2.00000          -0.753809          -20.51219
     47       2.00000          -0.739520          -20.12335
     48       2.00000          -0.736053          -20.02902
     49       2.00000          -0.734764          -19.99396
     50       2.00000          -0.731614          -19.90822
     51       2.00000          -0.729134          -19.84074
     52       2.00000          -0.723901          -19.69835
     53       2.00000          -0.714868          -19.45255
     54       2.00000          -0.687753          -18.71472
     55       2.00000          -0.652097          -17.74446
     56       2.00000          -0.635832          -17.30187
     57       2.00000          -0.626393          -17.04503
     58       2.00000          -0.624732          -16.99982
     59       2.00000          -0.617229          -16.79566
     60       2.00000          -0.608384          -16.55498
     61       2.00000          -0.606586          -16.50605
     62       2.00000          -0.603950          -16.43431
     63       2.00000          -0.595974          -16.21728
     64       2.00000          -0.582893          -15.86133
     65       2.00000          -0.570106          -15.51337
     66       2.00000          -0.539157          -14.67121
     67       2.00000          -0.537489          -14.62582
     68       2.00000          -0.527860          -14.36380
     69       2.00000          -0.524474          -14.27168
     70       2.00000          -0.516695          -14.06000
     71       2.00000          -0.509750          -13.87100
     72       2.00000          -0.507426          -13.80776
     73       2.00000          -0.499474          -13.59138
     74       2.00000          -0.496562          -13.51214
     75       2.00000          -0.474898          -12.92263
     76       2.00000          -0.474378          -12.90847
     77       2.00000          -0.469833          -12.78481
     78       2.00000          -0.463024          -12.59951
     79       2.00000          -0.460874          -12.54102
     80       2.00000          -0.459189          -12.49517
     81       2.00000          -0.453105          -12.32960
     82       2.00000          -0.441958          -12.02628
     83       2.00000          -0.440546          -11.98786
     84       2.00000          -0.436250          -11.87096
     85       2.00000          -0.434626          -11.82678
     86       2.00000          -0.433195          -11.78784
     87       2.00000          -0.431231          -11.73438
     88       2.00000          -0.426771          -11.61303
     89       2.00000          -0.416468          -11.33268
     90       2.00000          -0.414623          -11.28247
     91       2.00000          -0.411110          -11.18686
     92       2.00000          -0.408179          -11.10712
     93       2.00000          -0.403089          -10.96861
     94       2.00000          -0.393816          -10.71628
     95       2.00000          -0.391574          -10.65527
     96       2.00000          -0.376384          -10.24194
     97       2.00000          -0.375520          -10.21841
     98       2.00000          -0.371949          -10.12125
     99       2.00000          -0.370128          -10.07169
    100       2.00000          -0.366750           -9.97977
    101       2.00000          -0.363815           -9.89992
    102       2.00000          -0.362064           -9.85225
    103       2.00000          -0.358202           -9.74718
    104       2.00000          -0.353241           -9.61219
    105       2.00000          -0.348933           -9.49495
    106       2.00000          -0.346536           -9.42971
    107       2.00000          -0.343835           -9.35622
    108       2.00000          -0.334242           -9.09520
    109       2.00000          -0.317418           -8.63738
    110       2.00000          -0.293309           -7.98135
    111       2.00000          -0.279041           -7.59309
    112       2.00000          -0.277301           -7.54575
    113       2.00000          -0.275517           -7.49719
    114       2.00000          -0.274427           -7.46753
    115       2.00000          -0.271001           -7.37431
    116       2.00000          -0.267040           -7.26653
    117       2.00000          -0.265177           -7.21582
    118       2.00000          -0.249998           -6.80281
    119       2.00000          -0.210090           -5.71683
    120       0.00000          -0.156379           -4.25530
    121       0.00000          -0.113071           -3.07681
    122       0.00000          -0.100242           -2.72774
    123       0.00000          -0.091178           -2.48109
    124       0.00000          -0.088271           -2.40196
    125       0.00000          -0.085597           -2.32923
    126       0.00000          -0.084702           -2.30485
    127       0.00000          -0.080446           -2.18905
    128       0.00000          -0.073885           -2.01052
    129       0.00000          -0.059010           -1.60575
    130       0.00000          -0.039514           -1.07523
    131       0.00000          -0.030592           -0.83246
    132       0.00000          -0.026446           -0.71964
    133       0.00000          -0.019152           -0.52116
    134       0.00000          -0.015891           -0.43242
    135       0.00000          -0.006651           -0.18099
    136       0.00000          -0.005099           -0.13875
    137       0.00000          -0.004325           -0.11768
    138       0.00000           0.000953            0.02593
    139       0.00000           0.001864            0.05072
    140       0.00000           0.004746            0.12916
    141       0.00000           0.009945            0.27062
    142       0.00000           0.013031            0.35460
    143       0.00000           0.014389            0.39153
    144       0.00000           0.018980            0.51647
    145       0.00000           0.020773            0.56525
    146       0.00000           0.027206            0.74032
    147       0.00000           0.030477            0.82933
    148       0.00000           0.033790            0.91947
    149       0.00000           0.034473            0.93805
    150       0.00000           0.037878            1.03071
    151       0.00000           0.044300            1.20546
    152       0.00000           0.049268            1.34065
    153       0.00000           0.058210            1.58397
    154       0.00000           0.060197            1.63805
    155       0.00000           0.064850            1.76466
    156       0.00000           0.069344            1.88694
    157       0.00000           0.069796            1.89924
    158       0.00000           0.071790            1.95352
    159       0.00000           0.072821            1.98157
    160       0.00000           0.086284            2.34790
    161       0.00000           0.088979            2.42125
    162       0.00000           0.092801            2.52524
    163       0.00000           0.094712            2.57725
    164       0.00000           0.100208            2.72679
[...]
     90       2.00000          -0.361162           -9.82771
     91       2.00000          -0.355357           -9.66975
     92       2.00000          -0.352005           -9.57855
     93       2.00000          -0.347892           -9.46662
     94       2.00000          -0.339225           -9.23077
     95       2.00000          -0.334468           -9.10133
     96       2.00000          -0.327824           -8.92054
     97       2.00000          -0.326942           -8.89655
     98       2.00000          -0.317694           -8.64488
     99       2.00000          -0.313330           -8.52614
    100       2.00000          -0.310715           -8.45499
    101       2.00000          -0.308905           -8.40572
    102       2.00000          -0.304928           -8.29751
    103       2.00000          -0.300761           -8.18413
    104       2.00000          -0.300145           -8.16736
    105       2.00000          -0.298742           -8.12920
    106       2.00000          -0.290057           -7.89285
    107       2.00000          -0.282783           -7.69493
    108       2.00000          -0.273883           -7.45274
    109       2.00000          -0.271010           -7.37456
    110       2.00000          -0.245910           -6.69156
    111       2.00000          -0.238569           -6.49179
    112       2.00000          -0.236829           -6.44445
    113       2.00000          -0.236251           -6.42872
    114       2.00000          -0.232780           -6.33426
    115       2.00000          -0.226197           -6.15514
    116       2.00000          -0.225112           -6.12560
    117       2.00000          -0.224730           -6.11520
    118       2.00000          -0.204771           -5.57211
    119       2.00000          -0.162918           -4.43323
    120       0.00000          -0.109777           -2.98717
    121       0.00000          -0.067571           -1.83870
    122       0.00000          -0.054857           -1.49273
    123       0.00000          -0.048084           -1.30842
    124       0.00000          -0.046431           -1.26344
    125       0.00000          -0.043995           -1.19715
    126       0.00000          -0.043692           -1.18892
    127       0.00000          -0.040528           -1.10283
    128       0.00000          -0.032025           -0.87144
    129       0.00000          -0.011876           -0.32317
    130       0.00000          -0.010425           -0.28367
    131       0.00000          -0.005374           -0.14622
    132       0.00000           0.001843            0.05015
    133       0.00000           0.004798            0.13057
    134       0.00000           0.006771            0.18424
    135       0.00000           0.012049            0.32786
    136       0.00000           0.015670            0.42639
    137       0.00000           0.016190            0.44056
    138       0.00000           0.021884            0.59550
    139       0.00000           0.022486            0.61189
    140       0.00000           0.032478            0.88377
    141       0.00000           0.034655            0.94302
    142       0.00000           0.036742            0.99980
    143       0.00000           0.046281            1.25937
    144       0.00000           0.047819            1.30122
    145       0.00000           0.050920            1.38559
    146       0.00000           0.052754            1.43551
    147       0.00000           0.054600            1.48573
    148       0.00000           0.058302            1.58647
    149       0.00000           0.061364            1.66981
    150       0.00000           0.063698            1.73331
    151       0.00000           0.069199            1.88301
    152       0.00000           0.072992            1.98622
    153       0.00000           0.079606            2.16618
    154       0.00000           0.088521            2.40878
    155       0.00000           0.091463            2.48884
    156       0.00000           0.095908            2.60979
    157       0.00000           0.096655            2.63011
    158       0.00000           0.103752            2.82323
    159       0.00000           0.106911            2.90920
    160       0.00000           0.109017            2.96651
    161       0.00000           0.115591            3.14538
    162       0.00000           0.120672            3.28364
    163       0.00000           0.124908            3.39893
    164       0.00000           0.128599            3.49935
    165       0.00000           0.134678            3.66479
    166       0.00000           0.136729            3.72060
    167       0.00000           0.140417            3.82094
    168       0.00000           0.141045            3.83802
    169       0.00000           0.146092            3.97536
    170       0.00000           0.150613            4.09839
    171       0.00000           0.153259            4.17039
    172       0.00000           0.155084            4.22005
    173       0.00000           0.156425            4.25654
    174       0.00000           0.160489            4.36712
    175       0.00000           0.163550            4.45043
    176       0.00000           0.166340            4.52633
    177       0.00000           0.167719            4.56387
    178       0.00000           0.168909            4.59624
    179       0.00000           0.172192            4.68558
    180       0.00000           0.175216            4.76786
    181       0.00000           0.177121            4.81971
    182       0.00000           0.178983            4.87037
    183       0.00000           0.182624            4.96945
    184       0.00000           0.185476            5.04705
    185       0.00000           0.188567            5.13117
    186       0.00000           0.189175            5.14771
    187       0.00000           0.191933            5.22276
    188       0.00000           0.193501            5.26544
    189       0.00000           0.197631            5.37781
    190       0.00000           0.198347            5.39728
    191       0.00000           0.201509            5.48333
    192       0.00000           0.204867            5.57471
    193       0.00000           0.205765            5.59916
    194       0.00000           0.208024            5.66063
    195       0.00000           0.209300            5.69534
    196       0.00000           0.213267            5.80328
    197       0.00000           0.214064            5.82498
    198       0.00000           0.222077            6.04302
    199       0.00000           0.222374            6.05111
    200       0.00000           0.222768            6.06183
    201       0.00000           0.224172            6.10002
    202       0.00000           0.225443            6.13462
    203       0.00000           0.227139            6.18077
    204       0.00000           0.229231            6.23769
    205       0.00000           0.231156            6.29008
    206       0.00000           0.233701            6.35934
    207       0.00000           0.235393            6.40538
    208       0.00000           0.236899            6.44634
    209       0.00000           0.239420            6.51496
    210       0.00000           0.243034            6.61329
    211       0.00000           0.243939            6.63792
    212       0.00000           0.246600            6.71034
    213       0.00000           0.248415            6.75971
    214       0.00000           0.250675            6.82121
    215       0.00000           0.252241            6.86382
    216       0.00000           0.257453            7.00564
    217       0.00000           0.259430            7.05945
    218       0.00000           0.262503            7.14307
    219       0.00000           0.268840            7.31550
    220       0.00000           0.271895            7.39863
    221       0.00000           0.273968            7.45504
    222       0.00000           0.275399            7.49398
    223       0.00000           0.276784            7.53168
    224       0.00000           0.279014            7.59236
    225       0.00000           0.280624            7.63616
    226       0.00000           0.287134            7.81330
    227       0.00000           0.288004            7.83698
    228       0.00000           0.289374            7.87426
    229       0.00000           0.292647            7.96332
    230       0.00000           0.298403            8.11997
    231       0.00000           0.302478            8.23084
    232       0.00000           0.302732            8.23775
    233       0.00000           0.304699            8.29128
    234       0.00000           0.309239            8.41483
    235       0.00000           0.309905            8.43294
    236       0.00000           0.313527            8.53149
    237       0.00000           0.315385            8.58205
    238       0.00000           0.316850            8.62192
    239       0.00000           0.317031            8.62686
    240       0.00000           0.322595            8.77825
    241       0.00000           0.324745            8.83677
    242       0.00000           0.328343            8.93467
    243       0.00000           0.329536            8.96712
    244       0.00000           0.333842            9.08431
    245       0.00000           0.340887            9.27601
    246       0.00000           0.342921            9.33135
    247       0.00000           0.344542            9.37548
    248       0.00000           0.348744            9.48980
    249       0.00000           0.350075            9.52603
    250       0.00000           0.353907            9.63031
    251       0.00000           0.359477            9.78186
    252       0.00000           0.363988            9.90463
    253       0.00000           0.366515            9.97337
    254       0.00000           0.369033           10.04191
    255       0.00000           0.371280           10.10305
    256       0.00000           0.375903           10.22885
    257       0.00000           0.376471           10.24429
    258       0.00000           0.385240           10.48292
    259       0.00000           0.387105           10.53366
    260       0.00000           0.390233           10.61877

  Highest occupied state (VBM) at     -4.43322718 eV
  | Occupation number:      2.00000000

  Lowest unoccupied state (CBM) at    -2.98717171 eV
  | Occupation number:      0.00000000

  Overall HOMO-LUMO gap:      1.44605547 eV.

  Total energy components:
  | Sum of eigenvalues            :        -787.71332078 Ha      -21434.77004747 eV
  | XC energy correction          :        -202.40862237 Ha       -5507.81884933 eV
  | XC potential correction       :         260.02712785 Ha        7075.69815628 eV
  | Free-atom electrostatic energy:        -602.84877715 Ha      -16404.34987041 eV
  | Hartree energy correction     :         -51.55861241 Ha       -1402.98122651 eV
  | Entropy correction            :           0.00000000 Ha           0.00000000 eV
  | ---------------------------
  | Total energy                  :       -1384.50220486 Ha      -37674.22183743 eV
  | Total energy, T -> 0          :       -1384.50220486 Ha      -37674.22183743 eV  <-- do not rely on this value for anything but (periodic) metals
  | Electronic free energy        :       -1384.50220486 Ha      -37674.22183743 eV

  Derived energy quantities:
  | Kinetic energy                :        1381.43835155 Ha       37590.85014703 eV
  | Electrostatic energy          :       -2563.53193404 Ha      -69757.25313513 eV
  | Energy correction for multipole
  | error in Hartree potential    :          -0.16883693 Ha          -4.59428657 eV
  | Sum of eigenvalues per atom                           :        -369.56500082 eV
  | Total energy (T->0) per atom                          :        -649.55554892 eV  <-- do not rely on this value for anything but (periodic) metals
  | Electronic free energy per atom                       :        -649.55554892 eV
  End evaluation of scaled ZORA corrections.
  | Time for scaled ZORA corrections           :        7.920 s           7.931 s
------------------------------------------------------------

  Energy and forces in a compact form:
  | Total energy uncorrected      :         -0.376742218374344E+05 eV
  | Total energy corrected        :         -0.376742218374344E+05 eV  <-- do not rely on this value for anything but (periodic) metals
  | Electronic free energy        :         -0.376742218374344E+05 eV

  ------------------------------------ 
  Start decomposition of the XC Energy 
  ------------------------------------ 
  X and C from original XC functional choice 
  Hartree-Fock Energy :          0.000000000 Ha              0.000000000 eV
  X Energy            :       -194.417535004 Ha          -5290.370298532 eV
  C Energy            :         -7.991087363 Ha           -217.448550795 eV
  Total XC Energy     :       -202.408622366 Ha          -5507.818849326 eV
  ------------------------------------ 
  LDA X and C from self-consistent density 
  X Energy LDA        :       -176.109572102 Ha          -4792.185280608 eV
  C Energy LDA        :        -15.373690936 Ha           -418.339415242 eV
  ------------------------------------ 
  End decomposition of the XC Energy 
  ------------------------------------ 

------------------------------------------------------------

------------------------------------------------------------------------------
  Final output of selected total energy values:

  The following output summarizes some interesting total energy values
  at the end of a run (AFTER all relaxation, molecular dynamics, etc.).

  | Total energy of the DFT / Hartree-Fock s.c.f. calculation      :         -37674.221837434 eV
  | Final zero-broadening corrected energy (caution - metals only) :         -37674.221837434 eV
  | For reference only, the value of 1 Hartree used in FHI-aims is :             27.211384500 eV

  Before relying on these values, please be sure to understand exactly which
  total energy value is referred to by a given number. Different objects may
  all carry the same name 'total energy'. Definitions:

  Total energy of the DFT / Hartree-Fock s.c.f. calculation:
  | Note that this energy does not include ANY quantities calculated after the
  | s.c.f. cycle, in particular not ANY RPA, MP2, etc. many-body perturbation terms.
  | Scalar relativistic effects have been included in the 'scaled ZORA' approximation.

  Final zero-broadening corrected energy:
  | For metallic systems only, a broadening of the occupation numbers at the Fermi
  | level can be extrapolated back to zero broadening by an electron-gas inspired
  | formula. For all systems that are not real metals, this value can be
  | meaningless and should be avoided.

------------------------------------------------------------------------------
  Methods described in the following list of references were used in this FHI-aims run.
  If you publish the results, please make sure to cite these reference if they apply.
  FHI-aims is an academic code, and for our developers (often, Ph.D. students
  and postdocs), scientific credit in the community is essential.
  Thank you for helping us!

  For any use of FHI-aims, please cite:

    Volker Blum, Ralf Gehrke, Felix Hanke, Paula Havu, Ville Havu,
    Xinguo Ren, Karsten Reuter, and Matthias Scheffler
    'Ab initio molecular simulations with numeric atom-centered orbitals'
    Computer Physics Communications 180, 2175-2196 (2009)
    http://dx.doi.org/10.1016/j.cpc.2009.06.022


  The scalable eigensolver library ELPA was used in your run.
  ELPA is essential especially for large systems on hundreds or thousands of CPUs.
  For ELPA, please cite:

    Andreas Marek, Volker Blum, Rainer Johanni, Ville Havu, Bruno Lang,
    Thomas Auckenthaler, Alexander Heinecke, Hans-Joachim Bungartz, and Hermann Lederer,
    'The ELPA Library - Scalable Parallel Eigenvalue Solutions
    for Electronic Structure Theory and Computational Science'
    The Journal of Physics: Condensed Matter 26, 213201 (2014).
    http://dx.doi.org/10.1088/0953-8984/26/21/213201


  The ELSI infrastructure was used in your run to solve the Kohn-Sham electronic structure.
  Please check out http://elsi-interchange.org to learn more.
  If scalability is important for your project, please acknowledge ELSI by citing:

    V. W-z. Yu, F. Corsetti, A. Garcia, W. P. Huhn, M. Jacquelin, W. Jia,
    B. Lange, L. Lin, J. Lu, W. Mi, A. Seifitokaldani, A. Vazquez-Mayagoitia,
    C. Yang, H. Yang, and V. Blum
    'ELSI: A unified software interface for Kohn-Sham electronic structure solvers'
    Computer Physics Communications 222, 267-285 (2018).
    http://dx.doi.org/10.1016/j.cpc.2017.09.007


  For the real-space grid partitioning and parallelization used in this calculation, please cite:

    Ville Havu, Volker Blum, Paula Havu, and Matthias Scheffler,
    'Efficient O(N) integration for all-electron electronic structure calculation'
    'using numerically tabulated basis functions'
    Journal of Computational Physics 228, 8367-8379 (2009).
    http://dx.doi.org/10.1016/j.jcp.2009.08.008

  Of course, there are many other important community references, e.g., those cited in the
  above references. Our list is limited to references that describe implementations in the
  FHI-aims code. The reason is purely practical (length of this list) - please credit others as well.

------------------------------------------------------------
          Leaving FHI-aims.
          Date     :  20210620, Time     :  172018.880

          Computational steps:
          | Number of self-consistency cycles          :           19
          | Number of SCF (re)initializations          :            1

          Detailed time accounting                     :  max(cpu_time)    wall_clock(cpu1)
          | Total time                                 :      153.492 s         153.703 s
          | Preparation time                           :        0.190 s           0.176 s
          | Boundary condition initalization           :        0.001 s           0.004 s
          | Grid partitioning                          :        1.242 s           1.248 s
          | Preloading free-atom quantities on grid    :        0.013 s           0.017 s
          | Free-atom superposition energy             :        0.092 s           0.094 s
          | Total time for integrations                :       89.451 s          89.462 s
          | Total time for solution of K.-S. equations :        4.305 s           4.336 s
          | Total time for density update              :       34.442 s          34.383 s
          | Total time for mixing                      :        0.182 s           0.185 s
          | Total time for Hartree multipole update    :        0.222 s           0.232 s
          | Total time for Hartree multipole sum       :       13.970 s          13.972 s
          | Total time for total energy evaluation     :        0.013 s           0.029 s
          | Total time for scaled ZORA corrections     :        7.920 s           7.931 s

          Partial memory accounting:
          | Residual value for overall tracked memory usage across tasks :     0.000000 MB (should be 0.000000 MB)
          | Peak values for overall tracked memory usage (after allocating zora_vector2):
          |   Minimum:       35.007 MB (on task 42)
          |   Maximum:       45.071 MB (on task 43)
          |   Average:       39.688 MB
          | Largest tracked array allocation (hamiltonian_shell):
          |   Minimum:       10.672 MB (on task  1)
          |   Maximum:       10.672 MB (on task  1)
          |   Average:       10.672 MB
          Note:  These values currently only include a subset of arrays which are explicitly tracked.
          The "true" memory usage will be greater.

          Have a nice day.
------------------------------------------------------------
