  MPI-parallelism will be employed.
------------------------------------------------------------
          Invoking FHI-aims ...
          Version 180607
          Git rev. (modified): 6724847 Fix JSON memory corruption in scf_solver
          Compiled on 2018/06/27 at 16:00:31 on host coe.psc.edu.

          When using FHI-aims, please cite the following reference:

          Volker Blum, Ralf Gehrke, Felix Hanke, Paula Havu,
          Ville Havu, Xinguo Ren, Karsten Reuter, and Matthias Scheffler,
          'Ab Initio Molecular Simulations with Numeric Atom-Centered Orbitals',
          Computer Physics Communications 180, 2175-2196 (2009)

          For any questions about FHI-aims, please visit the aimsclub website
          with its forums and wiki. Contributions to both the forums and the
          wiki are warmly encouraged - they are for you, and everyone is welcome there.

------------------------------------------------------------



  Date     :  20210620, Time     :  164341.512
  Time zero on CPU 1             :   0.288152000000000E+00  s.
  Internal wall clock time zero  :           393439421.512  s.

  FHI-aims created a unique identifier for this run for later identification
  aims_uuid : 694087B0-5A18-42C2-AA2D-9B9A5F2211C9

  Using       56 parallel tasks.
  Task        0 on host d021 reporting.
  Task        1 on host d021 reporting.
  Task        2 on host d021 reporting.
  Task        3 on host d021 reporting.
  Task        4 on host d021 reporting.
  Task        5 on host d021 reporting.
  Task        6 on host d021 reporting.
  Task        7 on host d021 reporting.
  Task        8 on host d021 reporting.
  Task        9 on host d021 reporting.
  Task       10 on host d021 reporting.
  Task       11 on host d021 reporting.
  Task       12 on host d021 reporting.
  Task       13 on host d021 reporting.
  Task       14 on host d021 reporting.
  Task       15 on host d021 reporting.
  Task       16 on host d021 reporting.
  Task       17 on host d021 reporting.
  Task       18 on host d021 reporting.
  Task       19 on host d021 reporting.
  Task       20 on host d021 reporting.
  Task       21 on host d021 reporting.
  Task       22 on host d021 reporting.
  Task       23 on host d021 reporting.
  Task       24 on host d021 reporting.
  Task       25 on host d021 reporting.
  Task       26 on host d021 reporting.
  Task       27 on host d021 reporting.
  Task       28 on host d021 reporting.
  Task       29 on host d021 reporting.
  Task       30 on host d021 reporting.
  Task       31 on host d021 reporting.
  Task       32 on host d021 reporting.
  Task       33 on host d021 reporting.
  Task       34 on host d021 reporting.
  Task       35 on host d021 reporting.
  Task       36 on host d021 reporting.
  Task       37 on host d021 reporting.
  Task       38 on host d021 reporting.
  Task       39 on host d021 reporting.
  Task       40 on host d021 reporting.
  Task       41 on host d021 reporting.
  Task       42 on host d021 reporting.
  Task       43 on host d021 reporting.
  Task       44 on host d021 reporting.
  Task       45 on host d021 reporting.
  Task       46 on host d021 reporting.
  Task       47 on host d021 reporting.
  Task       48 on host d021 reporting.
  Task       49 on host d021 reporting.
  Task       50 on host d021 reporting.
  Task       51 on host d021 reporting.
  Task       52 on host d021 reporting.
  Task       53 on host d021 reporting.
  Task       54 on host d021 reporting.
  Task       55 on host d021 reporting.

  Performing system and environment tests:
  *** Environment variable OMP_NUM_THREADS is not set
  *** For performance reasons you might want to set it to 1
  | Stacksize not measured: no C compiler
  | Checking for scalapack...
  | Testing pdtran()...
  | All pdtran() tests passed.

  Obtaining array dimensions for all initial allocations:
  
  -----------------------------------------------------------------------
  Parsing control.in (first pass over file, find array dimensions only).
  The contents of control.in will be repeated verbatim below
  unless switched off by setting 'verbatim_writeout .false.' .
  in the first line of control.in .
  -----------------------------------------------------------------------
  
  #===============================================================================
  # FHI-aims file: ./Runs/es/control.in
  # Created using the Atomic Simulation Environment (ASE)
  # Mon Jan 13 16:04:38 2020
  #===============================================================================
  xc                                 pbe
  relativistic                       zora scalar 1e-12
  occupation_type                    gaussian 0.0001
  load_balancing                     .true.
  KS_method                          scalapack_fast
  mixer                              pulay
  n_max_pulay                        5
  charge_mix_param                   0.4
  sc_accuracy_etot                   1e-6
  sc_accuracy_eev                    1e-4
  sc_accuracy_rho                    1e-6
  sc_iter_limit                      100
  prodbas_threshold                  1e-4
  basis_threshold                    1e-5
  override_illconditioning           .true.
  use_logsbt                         .true.
  spin                               none
  charge                             0
  #===============================================================================
  
  ################################################################################
  #
  #  FHI-aims code project
  # Volker Blum, Fritz Haber Institute Berlin, 2009
  #
  #  Suggested "tight" defaults for H atom (to be pasted into control.in file)
  #
  ################################################################################
    species        H
  #     global species definitions
      nucleus             1
      mass                1.00794
  #
      l_hartree           6
  #
      cut_pot             4.0  2.0  1.0
      basis_dep_cutoff    1e-4
  #
      radial_base         24 7.0
      radial_multiplier   2
      angular_grids       specified
        division   0.1930   50
        division   0.3175  110
        division   0.4293  194
        division   0.5066  302
        division   0.5626  434
  #      division   0.5922  590
  #      division   0.6227  974
  #      division   0.6868 1202
  #      outer_grid  770
        outer_grid  434
  ################################################################################
  #
  #  Definition of "minimal" basis
  #
  ################################################################################
  #     valence basis states
      valence      1  s   1.
  #     ion occupancy
      ion_occ      1  s   0.5
  ################################################################################
  #
  #  Suggested additional basis functions. For production calculations,
  #  uncomment them one after another (the most important basis functions are
  #  listed first).
  #
  #  Basis constructed for dimers: 0.5 A, 0.7 A, 1.0 A, 1.5 A, 2.5 A
  #
  ################################################################################
  #  "First tier" - improvements: -1014.90 meV to -62.69 meV
       hydro 2 s 2.1
       hydro 2 p 3.5
  #  "Second tier" - improvements: -12.89 meV to -1.83 meV
       hydro 1 s 0.85
       hydro 2 p 3.7
       hydro 2 s 1.2
       hydro 3 d 7
  #  "Third tier" - improvements: -0.25 meV to -0.12 meV
  #     hydro 4 f 11.2
  #     hydro 3 p 4.8
  #     hydro 4 d 9
  #     hydro 3 s 3.2
  ################################################################################
  #
  # For methods that use the localized form of the "resolution of identity" for
  # the two-electron Coulomb operator (RI_method LVL), particularly Hartree-Fock and
  # hybrid density functional calculations, the highest accuracy can be obtained by
  # uncommenting the line beginning with "for_aux"  below, thus adding an extra g radial
  # function to the construction of the product basis set for the expansion.
  # See Ref. New J. Phys. 17, 093020 (2015) for more information, particularly Figs. 1 and 6.
  #
  ################################################################################
  #
  # for_aux hydro 5 g 6.0
  ################################################################################
  #
  #  FHI-aims code project
  # Volker Blum, Fritz Haber Institute Berlin, 2009
  #
  #  Suggested "tight" defaults for C atom (to be pasted into control.in file)
  #
  ################################################################################
    species        C
  #     global species definitions
      nucleus             6
      mass                12.0107
  #
      l_hartree           6
  #
      cut_pot             4.0  2.0  1.0
      basis_dep_cutoff    1e-4
  #
      radial_base         34 7.0
      radial_multiplier   2
      angular_grids specified
        division   0.2187   50
        division   0.4416  110
        division   0.6335  194
        division   0.7727  302
        division   0.8772  434
  #      division   0.9334  590
  #      division   0.9924  770
  #      division   1.0230  974
  #      division   1.5020 1202
  #     outer_grid  974
        outer_grid  434
  ################################################################################
  #
  #  Definition of "minimal" basis
  #
  ################################################################################
  #     valence basis states
      valence      2  s   2.
      valence      2  p   2.
  #     ion occupancy
      ion_occ      2  s   1.
      ion_occ      2  p   1.
  ################################################################################
  #
  #  Suggested additional basis functions. For production calculations,
  #  uncomment them one after another (the most important basis functions are
  #  listed first).
  #
  #  Constructed for dimers: 1.0 A, 1.25 A, 1.5 A, 2.0 A, 3.0 A
  #
  ################################################################################
  #  "First tier" - improvements: -1214.57 meV to -155.61 meV
       hydro 2 p 1.7
       hydro 3 d 6
       hydro 2 s 4.9
  #  "Second tier" - improvements: -67.75 meV to -5.23 meV
       hydro 4 f 9.8
       hydro 3 p 5.2
       hydro 3 s 4.3
       hydro 5 g 14.4
       hydro 3 d 6.2
  #  "Third tier" - improvements: -2.43 meV to -0.60 meV
  #     hydro 2 p 5.6
  #     hydro 2 s 1.4
  #     hydro 3 d 4.9
  #     hydro 4 f 11.2
  #  "Fourth tier" - improvements: -0.39 meV to -0.18 meV
  #     hydro 2 p 2.1
  #     hydro 5 g 16.4
  #     hydro 4 d 13.2
  #     hydro 3 s 13.6
  #     hydro 4 f 17.6
  #  Further basis functions - improvements: -0.08 meV and below
  #     hydro 3 s 2
  #     hydro 3 p 6
  #     hydro 4 d 20
  ################################################################################
  #
  # For methods that use the localized form of the "resolution of identity" for
  # the two-electron Coulomb operator (RI_method LVL), particularly Hartree-Fock and
  # hybrid density functional calculations, the highest accuracy can be obtained by
  # uncommenting the line beginning with "for_aux"  below, thus adding an extra g radial
  # function to the construction of the product basis set for the expansion.
  # See Ref. New J. Phys. 17, 093020 (2015) for more information, particularly Figs. 1 and 6.
  #
  ################################################################################
  #
  # for_aux hydro 5 g 6.0
  
  -----------------------------------------------------------------------
  Completed first pass over input file control.in .
  -----------------------------------------------------------------------
  
  
  -----------------------------------------------------------------------
  Parsing geometry.in (first pass over file, find array dimensions only).
  The contents of geometry.in will be repeated verbatim below
  unless switched off by setting 'verbatim_writeout .false.' .
  in the first line of geometry.in .
  -----------------------------------------------------------------------
  
  #=======================================================
  # FHI-aims file: geometry.in
  # Created using the Atomic Simulation Environment (ASE)
  # Sun Jun 20 15:47:01 2021
  #=======================================================
  atom 7.0936409999999999 16.3105259999999994 28.2111580000000011 H
  atom 6.2732520000000003 16.8682300000000005 27.7659510000000012 C
  atom 5.1891840000000000 17.2888330000000003 28.6110509999999998 C
  atom 6.3111670000000002 17.1374770000000005 26.4631830000000008 C
  atom 5.1618370000000002 16.9869829999999986 30.0316340000000004 C
  atom 4.1349489999999998 18.0076290000000014 28.0310360000000003 C
  atom 5.2706070000000000 17.8725990000000010 25.8423860000000012 C
  atom 7.1531849999999997 16.8128099999999989 25.8534879999999987 H
  atom 4.0535259999999997 17.4238630000000008 30.7997009999999989 C
  atom 6.1719379999999999 16.2546730000000004 30.6864169999999987 C
  atom 3.0508810000000000 18.4282320000000013 28.8761359999999989 C
  atom 4.1622960000000004 18.3094789999999996 26.6104519999999987 C
  atom 5.3166019999999996 18.1725719999999988 24.4603189999999984 C
  atom 4.0075310000000002 17.1238899999999994 32.1817679999999982 C
  atom 3.0129660000000000 18.1589850000000013 30.1789039999999993 C
  atom 6.0886469999999999 15.9779630000000008 32.0254359999999991 C
  atom 7.0381369999999999 15.9015690000000003 30.1322310000000009 H
  atom 2.2304919999999999 18.9859359999999988 28.4309289999999990 H
  atom 3.1521949999999999 19.0417890000000014 25.9556700000000014 C
  atom 4.3201760000000000 18.8800729999999994 23.8621780000000001 C
  atom 6.1758389999999999 17.8178750000000008 23.8900460000000017 H
  atom 3.1482939999999999 17.4785870000000010 32.7520409999999984 H
  atom 5.0039569999999998 16.4163889999999988 32.7799090000000035 C
  atom 2.1709480000000001 18.4836519999999993 30.7885990000000014 H
  atom 6.8842650000000001 15.4046620000000001 32.5013429999999985 H
  atom 2.2859959999999999 19.3948929999999997 26.5098559999999992 H
  atom 3.2354859999999999 19.3184989999999992 24.6166510000000009 C
  atom 4.3610439999999997 19.1009700000000002 22.7958339999999993 H
  atom 4.9630890000000001 16.1954920000000016 33.8462519999999998 H
  atom 2.4398680000000001 19.8917999999999999 24.1407440000000015 H
  
  -----------------------------------------------------------------------
  Completed first pass over input file geometry.in .
  -----------------------------------------------------------------------
  

  Basic array size parameters:
  | Number of species                 :        2
  | Number of atoms                   :       30
  | Max. basis fn. angular momentum   :        4
  | Max. atomic/ionic basis occupied n:        2
  | Max. number of basis fn. types    :        2
  | Max. radial fns per species/type  :        8
  | Max. logarithmic grid size        :     1277
  | Max. radial integration grid size :       69
  | Max. angular integration grid size:      434
  | Max. angular grid division number :        8
  | Radial grid for Hartree potential :     1277
  | Number of spin channels           :        1

------------------------------------------------------------
          Reading file control.in.
------------------------------------------------------------
  XC: Using PBE gradient-corrected functionals.
  Scalar relativistic treatment of kinetic energy: ZORA.
  Threshold value for ZORA:   0.100000E-11
  Occupation type: Gaussian broadening, width =   0.100000E-03 eV.
  Since 'load_balancing .true.' is present in control.in, automatically turning on 'use_local_index .true.'.
  Using load balancing for integrations.
  Kohn-Sham electronic structure solved by the ELSI library.
  Using pulay charge density mixing.
  Pulay mixing - number of memorized iterations:    5
  Charge density mixing - mixing parameter:     0.4000
  Convergence accuracy of total energy:  0.1000E-05
  Convergence accuracy of sum of eigenvalues:  0.1000E-03
  Convergence accuracy of self-consistent charge density:  0.1000E-05
  Maximum number of s.-c. iterations  :   100
  * Ignoring prodbas_threshold
  Threshold for basis singularities:  0.1000E-04
  override_illconditioning: Explicitly overriding any built-in checks for an ill-conditioned overlap matrix.
  *** WARNING: If you use this flag, you should really know what you are doing.
  *** DO NOT keep this flag set by default in all your control.in files.
  Using 1D integrations for auxiliary 2-center integrals.
  Spin treatment: No spin polarisation.
  Charge =   0.000000E+00: Neutral system requested explicitly.
 
  Reading configuration options for species H                   .
  | Found nuclear charge :   1.0000
  | Found atomic mass :    1.00794000000000      amu
  | Found l_max for Hartree potential  :   6
  | Found cutoff potl. onset [A], width [A], scale factor :    4.00000    2.00000    1.00000
  | Threshold for basis-dependent cutoff potential is   0.100000E-03
  | Found data for basic radial integration grid :    24 points, outermost radius =    7.000 A
  | Found multiplier for basic radial grid :   2
  | Found angular grid specification: user-specified.
  | Specified grid contains     6 separate shells.
  | Check grid settings after all constraints further below.
  | Found free-atom valence shell :  1 s   1.000
  | No ionic wave fns used. Skipping ion_occ.
  | Found hydrogenic basis function :  2 s   2.100
  | Found hydrogenic basis function :  2 p   3.500
  | Found hydrogenic basis function :  1 s   0.850
  | Found hydrogenic basis function :  2 p   3.700
  | Found hydrogenic basis function :  2 s   1.200
  | Found hydrogenic basis function :  3 d   7.000
  Species H                   : Missing cutoff potential type.
  Defaulting to exp(1/x)/(1-x)^2 type cutoff potential.
  Species H : No 'logarithmic' tag. Using default grid for free atom:
  | Default logarithmic grid data [bohr] : 0.1000E-03 0.1000E+03 0.1012E+01
  Species H : On-site basis accuracy parameter (for Gram-Schmidt orthonormalisation) not specified.
  Using default value basis_acc =  0.1000000E-03.
  Species H                   : Using default innermost maximum threshold i_radial=  2 for radial functions.
  Species H                   : Default cutoff onset for free atom density etc. : 0.40000000E+01 AA.
  Species H                   : Basic radial grid will be enhanced according to radial_multiplier =   2, to contain    49 grid points.
 
  Reading configuration options for species C                   .
  | Found nuclear charge :   6.0000
  | Found atomic mass :    12.0107000000000      amu
  | Found l_max for Hartree potential  :   6
  | Found cutoff potl. onset [A], width [A], scale factor :    4.00000    2.00000    1.00000
  | Threshold for basis-dependent cutoff potential is   0.100000E-03
  | Found data for basic radial integration grid :    34 points, outermost radius =    7.000 A
  | Found multiplier for basic radial grid :   2
  | Found angular grid specification: user-specified.
  | Specified grid contains     6 separate shells.
  | Check grid settings after all constraints further below.
  | Found free-atom valence shell :  2 s   2.000
  | Found free-atom valence shell :  2 p   2.000
  | No ionic wave fns used. Skipping ion_occ.
  | No ionic wave fns used. Skipping ion_occ.
  | Found hydrogenic basis function :  2 p   1.700
  | Found hydrogenic basis function :  3 d   6.000
  | Found hydrogenic basis function :  2 s   4.900
  | Found hydrogenic basis function :  4 f   9.800
  | Found hydrogenic basis function :  3 p   5.200
  | Found hydrogenic basis function :  3 s   4.300
  | Found hydrogenic basis function :  5 g  14.400
  | Found hydrogenic basis function :  3 d   6.200
  Species C                   : Missing cutoff potential type.
  Defaulting to exp(1/x)/(1-x)^2 type cutoff potential.
  Species C : No 'logarithmic' tag. Using default grid for free atom:
  | Default logarithmic grid data [bohr] : 0.1000E-03 0.1000E+03 0.1012E+01
  Species C : On-site basis accuracy parameter (for Gram-Schmidt orthonormalisation) not specified.
  Using default value basis_acc =  0.1000000E-03.
  Species C                   : Using default innermost maximum threshold i_radial=  2 for radial functions.
  Species C                   : Default cutoff onset for free atom density etc. : 0.40000000E+01 AA.
  Species C                   : Basic radial grid will be enhanced according to radial_multiplier =   2, to contain    69 grid points.
 
  Finished reading input file 'control.in'. Consistency checks are next.
 
  MPI_IN_PLACE appears to work with this MPI implementation.
  | Keeping use_mpi_in_place .true. (see manual).
  Target number of points in a grid batch is not set. Defaulting to  100
  Method for grid partitioning is not set. Defaulting to parallel hash+maxmin partitioning.
  Batch size limit is not set. Defaulting to    200
  By default, will store active basis functions for each batch.
  If in need of memory, prune_basis_once .false. can be used to disable this option.
  communication_type for Hartree potential was not specified.
  Defaulting to calc_hartree .
  Pulay mixer: Number of initial linear mixing iterations not set.
  Defaulting to    0 iterations.
  Work space size for distributed Hartree potential not set.
  Defaulting to   0.200000E+03 MB.
  Algorithm-dependent basis array size parameters:
  | n_max_pulay                         :        5
  Presetting      1001 iterations before the initial mixing cycle
  is restarted anyway using the sc_init_iter criterion / keyword.
  Presetting a factor      1.000 between actual scf density residual
  and density convergence criterion sc_accuracy_rho below which sc_init_iter
  takes no effect.
  Calculation of forces was not defined in control.in. No forces will be calculated.
  Geometry relaxation not requested: no relaxation will be performed.
  No accuracy limit for integral partition fn. given. Defaulting to  0.1000E-14.
  No threshold value for u(r) in integrations given. Defaulting to  0.1000E-05.
  No accuracy for occupation numbers given. Defaulting to  0.1000E-12.
  No threshold value for occupation numbers given. Defaulting to  0.0000E+00.
  No accuracy for fermi level given. Defaulting to  0.1000E-19.
  Maximum # of iterations to find E_F not set. Defaulting to  200.
  Will not use alltoall communication since running on < 1024 CPUs.
  partition_type (choice of integration weights) for integrals was not specified.
  | Using a version of the partition function of Stratmann and coworkers ('stratmann_sparse').
  | At each grid point, the set of atoms used to build the partition table is smoothly restricted to
  | only those atoms whose free-atom density would be non-zero at that grid point.
  Partitioning for Hartree potential was not defined. Using partition_type for integrals.
  | Adjusted default value of keyword multip_moments_threshold to:       0.10000000E-11
  | This value may affect high angular momentum components of the Hartree potential in periodic systems.
  No q(lm)/r^(l+1) cutoff set for long-range Hartree potential.
  | Using default value of  0.100000E-09 .
  | Verify using the multipole_threshold keyword.
  Defaulting to new monopole extrapolation.
  Density update method: automatic selection selected.
 * Warning: use_local_index and/or load_balancing needs packed_matrix_format = index
 * Changing the default setting to packed_matrix_format = index
------------------------------------------------------------


------------------------------------------------------------
          Reading geometry description geometry.in.
------------------------------------------------------------
  Input structure read successfully.
  The structure contains       30 atoms,  and a total of        120.000 electrons.

  Input geometry:
  | No unit cell requested.
  | Atomic structure:
  |       Atom                x [A]            y [A]            z [A]
  |    1: Species H             7.09364100       16.31052600       28.21115800
  |    2: Species C             6.27325200       16.86823000       27.76595100
  |    3: Species C             5.18918400       17.28883300       28.61105100
  |    4: Species C             6.31116700       17.13747700       26.46318300
  |    5: Species C             5.16183700       16.98698300       30.03163400
  |    6: Species C             4.13494900       18.00762900       28.03103600
  |    7: Species C             5.27060700       17.87259900       25.84238600
  |    8: Species H             7.15318500       16.81281000       25.85348800
  |    9: Species C             4.05352600       17.42386300       30.79970100
  |   10: Species C             6.17193800       16.25467300       30.68641700
  |   11: Species C             3.05088100       18.42823200       28.87613600
  |   12: Species C             4.16229600       18.30947900       26.61045200
  |   13: Species C             5.31660200       18.17257200       24.46031900
  |   14: Species C             4.00753100       17.12389000       32.18176800
  |   15: Species C             3.01296600       18.15898500       30.17890400
  |   16: Species C             6.08864700       15.97796300       32.02543600
  |   17: Species H             7.03813700       15.90156900       30.13223100
  |   18: Species H             2.23049200       18.98593600       28.43092900
  |   19: Species C             3.15219500       19.04178900       25.95567000
  |   20: Species C             4.32017600       18.88007300       23.86217800
  |   21: Species H             6.17583900       17.81787500       23.89004600
  |   22: Species H             3.14829400       17.47858700       32.75204100
  |   23: Species C             5.00395700       16.41638900       32.77990900
  |   24: Species H             2.17094800       18.48365200       30.78859900
  |   25: Species H             6.88426500       15.40466200       32.50134300
  |   26: Species H             2.28599600       19.39489300       26.50985600
  |   27: Species C             3.23548600       19.31849900       24.61665100
  |   28: Species H             4.36104400       19.10097000       22.79583400
  |   29: Species H             4.96308900       16.19549200       33.84625200
  |   30: Species H             2.43986800       19.89180000       24.14074400
  |

  | The smallest distance between any two atoms is         1.08724664 AA.
  |
  | The first atom of this pair is atom number                     10 .
  | The second atom of this pair is atom number                    17 .

  Number of empty states per atom not set in control.in - providing a guess from actual geometry.
  | Total number of empty states used during s.c.f. cycle:       72
  If you use a very high smearing, use empty_states (per atom!) in control.in to increase this value.

  Structure-dependent array size parameters: 
  | Maximum number of distinct radial functions  :       18
  | Maximum number of basis functions            :      882
  | Number of Kohn-Sham states (occupied + empty):      132
------------------------------------------------------------

------------------------------------------------------------
          Preparing all fixed parts of the calculation.
------------------------------------------------------------
  Determining machine precision:
    2.225073858507201E-308
  Setting up grids for atomic and cluster calculations.

  Creating wave function, potential, and density for free atoms.

  Species: H

  List of occupied orbitals and eigenvalues:
    n    l              occ      energy [Ha]    energy [eV]
    1    0           1.0000        -0.238386        -6.4868


  Species: C

  List of occupied orbitals and eigenvalues:
    n    l              occ      energy [Ha]    energy [eV]
    1    0           2.0000       -10.049212      -273.4530
    2    0           2.0000        -0.504761       -13.7352
    2    1           2.0000        -0.193631        -5.2690

  Creating fixed part of basis set: Ionic, confined, hydrogenic.
 
  H                    hydrogenic:
 
  List of hydrogenic basis orbitals: 
    n    l      effective z      eigenvalue [eV]  inner max. [A]     outer max. [A]     outer radius [A]   
    2    0         2.100000       -14.9965           0.193243           1.317208           5.373006
    2    1         3.500000       -41.6672           0.602369           0.602369           4.056063
    1    0         0.850000        -9.8292           0.624871           0.624871           5.373006
    2    1         3.700000       -46.5653           0.573622           0.573622           3.910002
    2    0         1.200000        -4.5995           0.334980           2.228188           5.505995
    3    2         7.000000       -74.0753           0.680699           0.680699           3.769201
 
 
  C                    hydrogenic:
 
  List of hydrogenic basis orbitals: 
    n    l      effective z      eigenvalue [eV]  inner max. [A]     outer max. [A]     outer radius [A]   
    2    1         1.700000        -9.8152           1.245706           1.245706           5.401630
    3    2         6.000000       -54.4226           0.792453           0.792453           4.178599
    2    0         4.900000       -81.6681           0.082559           0.562749           3.353238
    4    3         9.800000       -81.6681           0.863254           0.863254           4.028125
    3    1         5.200000       -40.8774           0.305389           1.215618           4.898362
    3    0         4.300000       -27.9508           0.091041           1.610311           5.401630
    5    4        14.400000      -112.8510           0.917666           0.917666           3.883070
    3    2         6.200000       -58.1113           0.763917           0.763917           4.077671
 

  Adding cutoff potential to free-atom effective potential.
  Creating atomic-like basis functions for current effective potential.

  Species H                   :

  List of atomic basis orbitals and eigenvalues:
    n    l      energy [Ha]    energy [eV]    outer radius [A]
    1    0        -0.238386        -6.4868       5.373006


  Species C                   :

  List of atomic basis orbitals and eigenvalues:
    n    l      energy [Ha]    energy [eV]    outer radius [A]
    1    0       -10.049212      -273.4530       1.934409
    2    0        -0.504761       -13.7352       5.271162
    2    1        -0.193631        -5.2690       5.401630

  Assembling full basis from fixed parts.
  | Species H :   atomic orbital   1 s accepted.
  | Species H :    hydro orbital   2 s accepted.
  | Species H :    hydro orbital   1 s accepted.
  | Species H :    hydro orbital   2 s accepted.
  | Species H :    hydro orbital   2 p accepted.
  | Species H :    hydro orbital   2 p accepted.
  | Species H :    hydro orbital   3 d accepted.
  | Species C :   atomic orbital   1 s accepted.
  | Species C :    hydro orbital   2 s accepted.
  | Species C :   atomic orbital   2 s accepted.
  | Species C :    hydro orbital   3 s accepted.
  | Species C :    hydro orbital   3 p accepted.
  | Species C :   atomic orbital   2 p accepted.
  | Species C :    hydro orbital   2 p accepted.
  | Species C :    hydro orbital   3 d accepted.
  | Species C :    hydro orbital   3 d accepted.
  | Species C :    hydro orbital   4 f accepted.
  | Species C :    hydro orbital   5 g accepted.
 
  Basis size parameters after reduction:
  | Total number of radial functions:       18
  | Total number of basis functions :      882
 
  Per-task memory consumption for arrays in subroutine allocate_ext:
  |           4.434496MB.
  Testing on-site integration grid accuracy.
  |  Species  Function  <phi|h_atom|phi> (log., in eV)  <phi|h_atom|phi> (rad., in eV)
           1        1                 -6.4870767962                 -6.4871688290
           1        2                 13.5032046589                 13.5028982997
           1        3                 32.8195184817                 32.8119941656
           1        4                 33.8513856511                 33.7670005767 ***
           1        5                 28.8544614965                 28.8544615203
           1        6                 59.6326952547                 59.6327656460
           1        7                 60.2719308513                 60.2719305949
           2        8               -273.4529726040               -273.4529710464
           2        9                -10.7721037319                -10.7721022101
           2       10                 17.6044132601                 17.6044162063
           2       11                 53.7706460658                 53.7706913770
           2       12                 15.0973290362                 15.0973256030
           2       13                  3.8545134692                  3.8545724687
           2       14                 12.1156992592                 12.1182024431
           2       15                 29.4352039302                 29.4352041816
           2       16                 54.8741144708                 54.8740268729
           2       17                 59.3556032049                 59.3556031382
           2       18                 93.4551837154                 93.4551838009
 * Note: Onsite integrals marked "***" above are less accurate than
 * onsite_accuracy_threshold =    0.03000 eV. Usually, this is harmless.
 * When in doubt, tighten the "radial" and/or "radial_multiplier" flags to check.

  Preparing densities etc. for the partition functions (integrals / Hartree potential).

  Preparations completed.
  max(cpu_time)          :      0.196 s.
  Wall clock time (cpu1) :      0.182 s.
------------------------------------------------------------

------------------------------------------------------------
          Begin self-consistency loop: Initialization.

          Date     :  20210620, Time     :  164341.892
------------------------------------------------------------

  Initializing index lists of integration centers etc. from given atomic structure:
  | Number of centers in hartree potential         :        30
  | Number of centers in hartree multipole         :        30
  | Number of centers in electron density summation:        30
  | Number of centers in basis integrals           :        30
  | Number of centers in integrals                 :        30
  | Number of centers in hamiltonian               :        30
  * Using 56 tasks for Scalapack Eigenvalue solver.
  Detailed listing of tasks and assigned k-points:
  (for non-periodic systems, the "k-point" denotes an internal label only)
   Task     0 k-point     1 on d021
   Task     1 k-point     1 on d021
   Task     2 k-point     1 on d021
   Task     3 k-point     1 on d021
   Task     4 k-point     1 on d021
   Task     5 k-point     1 on d021
   Task     6 k-point     1 on d021
   Task     7 k-point     1 on d021
   Task     8 k-point     1 on d021
   Task     9 k-point     1 on d021
   Task    10 k-point     1 on d021
   Task    11 k-point     1 on d021
   Task    12 k-point     1 on d021
   Task    13 k-point     1 on d021
   Task    14 k-point     1 on d021
   Task    15 k-point     1 on d021
   Task    16 k-point     1 on d021
   Task    17 k-point     1 on d021
   Task    18 k-point     1 on d021
   Task    19 k-point     1 on d021
   Task    20 k-point     1 on d021
   Task    21 k-point     1 on d021
   Task    22 k-point     1 on d021
   Task    23 k-point     1 on d021
   Task    24 k-point     1 on d021
   Task    25 k-point     1 on d021
   Task    26 k-point     1 on d021
   Task    27 k-point     1 on d021
   Task    28 k-point     1 on d021
   Task    29 k-point     1 on d021
   Task    30 k-point     1 on d021
   Task    31 k-point     1 on d021
   Task    32 k-point     1 on d021
   Task    33 k-point     1 on d021
   Task    34 k-point     1 on d021
   Task    35 k-point     1 on d021
   Task    36 k-point     1 on d021
   Task    37 k-point     1 on d021
   Task    38 k-point     1 on d021
   Task    39 k-point     1 on d021
   Task    40 k-point     1 on d021
   Task    41 k-point     1 on d021
   Task    42 k-point     1 on d021
   Task    43 k-point     1 on d021
   Task    44 k-point     1 on d021
   Task    45 k-point     1 on d021
   Task    46 k-point     1 on d021
   Task    47 k-point     1 on d021
   Task    48 k-point     1 on d021
   Task    49 k-point     1 on d021
   Task    50 k-point     1 on d021
   Task    51 k-point     1 on d021
   Task    52 k-point     1 on d021
   Task    53 k-point     1 on d021
   Task    54 k-point     1 on d021
   Task    55 k-point     1 on d021
  Tasks:    56 split into      8 X      7 BLACS grid
  Calculating block size based on n_basis =          882 max_nprow =            8 max_npcol =            7
  ScaLAPACK block size set to:           16
  Allocating        0.115 MB for ovlp
  Allocating        0.115 MB for ham
  Allocating        0.115 MB for eigenvec
  Required Scalapack workspace - INTEGER:            1 REAL:             1
  Partitioning the integration grid into batches with parallel hashing+maxmin method.
  | Number of batches:     4875
  | Maximal batch size:     190
  | Minimal batch size:       8
  | Average batch size:     102.319
  | Standard deviation of batch sizes:      29.739

  Integration load balanced across     56 MPI tasks.
  Work distribution over tasks is as follows:
  Task      0 has       9013 integration points.
  Task      1 has       8940 integration points.
  Task      2 has       8869 integration points.
  Task      3 has       8962 integration points.
  Task      4 has       8932 integration points.
  Task      5 has       8928 integration points.
  Task      6 has       8869 integration points.
  Task      7 has       8984 integration points.
  Task      8 has       8981 integration points.
  Task      9 has       8776 integration points.
  Task     10 has       9011 integration points.
  Task     11 has       8840 integration points.
  Task     12 has       8940 integration points.
  Task     13 has       8847 integration points.
  Task     14 has       8952 integration points.
  Task     15 has       9032 integration points.
  Task     16 has       8842 integration points.
  Task     17 has       8967 integration points.
  Task     18 has       8873 integration points.
  Task     19 has       8959 integration points.
  Task     20 has       8813 integration points.
  Task     21 has       9018 integration points.
  Task     22 has       8963 integration points.
  Task     23 has       8752 integration points.
  Task     24 has       8925 integration points.
  Task     25 has       8813 integration points.
  Task     26 has       8871 integration points.
  Task     27 has       8867 integration points.
  Task     28 has       8944 integration points.
  Task     29 has       9002 integration points.
  Task     30 has       8857 integration points.
  Task     31 has       9044 integration points.
  Task     32 has       8857 integration points.
  Task     33 has       8974 integration points.
  Task     34 has       8704 integration points.
  Task     35 has       8923 integration points.
  Task     36 has       8955 integration points.
  Task     37 has       8854 integration points.
  Task     38 has       9012 integration points.
  Task     39 has       8832 integration points.
  Task     40 has       8849 integration points.
  Task     41 has       8834 integration points.
  Task     42 has       8947 integration points.
  Task     43 has       9064 integration points.
  Task     44 has       8813 integration points.
  Task     45 has       8979 integration points.
  Task     46 has       8866 integration points.
  Task     47 has       8891 integration points.
  Task     48 has       8754 integration points.
  Task     49 has       8921 integration points.
  Task     50 has       8940 integration points.
  Task     51 has       8894 integration points.
  Task     52 has       8951 integration points.
  Task     53 has       8837 integration points.
  Task     54 has       9005 integration points.
  Task     55 has       8762 integration points.
  Initializing partition tables, free-atom densities, potentials, etc. across the integration grid (initialize_grid_storage).
  | initialize_grid_storage: Actual outermost partition radius vs. multipole_radius_free
  | (-- VB: in principle, multipole_radius_free should be larger, hence this output)
  | Species        1: Confinement radius =              6.000000000000000 AA, multipole_radius_free =              6.071692442739658 AA.
  | Species        1: outer_partition_radius set to              6.071692442739658 AA .
  | Species        2: Confinement radius =              6.000000000000000 AA, multipole_radius_free =              6.029870734432609 AA.
  | Species        2: outer_partition_radius set to              6.029870734432609 AA .
  | The sparse table of interatomic distances needs     10.5640 kbyte instead of     7.2000 kbyte of memory.
  | Using the partition_type stratmann_smoother will reduce your memory usage.
  | Net number of integration points:   498804
  | of which are non-zero points    :   403865
  Renormalizing the initial density to the exact electron count on the 3D integration grid.
  | Initial density: Formal number of electrons (from input files) :     120.0000000000
  | Integrated number of electrons on 3D grid     :     120.0001666943
  | Charge integration error                      :       0.0001666943
  | Normalization factor for density and gradient :       0.9999986109
  Obtaining max. number of non-zero basis functions in each batch (get_n_compute_maxes).
  | Maximal number of non-zero basis functions:      760
  Selecting the method for density update.
  Loop over occupied states selected for charge density update.
  Hamiltonian matrix size:
  | Size of matrix non-packed:                389403
  | Size of matrix packed:          374141
  Allocating        0.931 MB for KS_eigenvector
  use_local_index: Max. local matrix size =       341308
  Task:     0 matrix size:     168490
  Task:     1 matrix size:     180280
  Task:     2 matrix size:     174345
  Task:     3 matrix size:     298440
  Task:     4 matrix size:     333334
  Task:     5 matrix size:     341308
  Task:     6 matrix size:     325347
  Task:     7 matrix size:     100128
  Task:     8 matrix size:     150300
  Task:     9 matrix size:     167280
  Task:    10 matrix size:     298820
  Task:    11 matrix size:     206141
  Task:    12 matrix size:     310316
  Task:    13 matrix size:     275733
  Task:    14 matrix size:      69006
  Task:    15 matrix size:      99235
  Task:    16 matrix size:     143380
  Task:    17 matrix size:     242515
  Task:    18 matrix size:     276021
  Task:    19 matrix size:     241505
  Task:    20 matrix size:     208603
  Task:    21 matrix size:     101475
  Task:    22 matrix size:      74305
  Task:    23 matrix size:     105570
  Task:    24 matrix size:     304569
  Task:    25 matrix size:     287004
  Task:    26 matrix size:     317442
  Task:    27 matrix size:     290762
  Task:    28 matrix size:     297382
  Task:    29 matrix size:     305017
  Task:    30 matrix size:     317442
  Task:    31 matrix size:     162165
  Task:    32 matrix size:     160461
  Task:    33 matrix size:      91806
  Task:    34 matrix size:     104653
  Task:    35 matrix size:     222539
  Task:    36 matrix size:     330462
  Task:    37 matrix size:     320617
  Task:    38 matrix size:     249422
  Task:    39 matrix size:     241237
  Task:    40 matrix size:     163870
  Task:    41 matrix size:     119316
  Task:    42 matrix size:     282573
  Task:    43 matrix size:     214462
  Task:    44 matrix size:     238050
  Task:    45 matrix size:     149878
  Task:    46 matrix size:     123256
  Task:    47 matrix size:      86320
  Task:    48 matrix size:      67896
  Task:    49 matrix size:     338405
  Task:    50 matrix size:     294084
  Task:    51 matrix size:     331379
  Task:    52 matrix size:     212707
  Task:    53 matrix size:     221956
  Task:    54 matrix size:     138075
  Task:    55 matrix size:     119805
  Integrating Hamiltonian matrix: batch-based integration.
  Time summed over all CPUs for integration: real work       66.686 s, elapsed      113.888 s
  Time get_set_sparse_local_matrix_scalapack:     0.010573 s
  Start compute_balanced_batch_distribution
  Done load balancing, time needed:      0.005 s
  Integrating overlap matrix with loadbalancing
  Time summed over all CPUs for integration: real work       18.047 s, elapsed       20.857 s
  Time get_set_full_local_matrix_scalapack:     0.007700 s

  Updating Kohn-Sham eigenvalues and eigenvectors using ELSI and the ELPA eigensolver.
  Overlap matrix is not singular
  | Lowest and highest eigenvalues :  0.11E+02,  0.86E-04
  Finished singularity check of overlap matrix
  | Time :     0.044 s
  Finished Cholesky decomposition
  | Time :     0.010 s
  Finished transformation to standard eigenproblem
  | Time :     0.005 s
  Starting ELPA eigensolver
  Finished solving standard eigenproblem
  | Time :     0.043 s
  Finished back-transformation of eigenvectors
  | Time :     0.002 s

  Obtaining occupation numbers and chemical potential using ELSI.
  | Chemical potential (Fermi level):    -8.27640908 eV
  Writing Kohn-Sham eigenvalues.

  State    Occupation    Eigenvalue [Ha]    Eigenvalue [eV]
      1       2.00000         -10.177333         -276.93932
      2       2.00000         -10.177333         -276.93932
      3       2.00000         -10.175283         -276.88354
      4       2.00000         -10.175283         -276.88354
      5       2.00000         -10.174931         -276.87396
      6       2.00000         -10.174931         -276.87396
      7       2.00000         -10.173840         -276.84427
      8       2.00000         -10.173840         -276.84427
      9       2.00000         -10.172139         -276.79799
     10       2.00000         -10.172139         -276.79799
     11       2.00000         -10.171868         -276.79060
     12       2.00000         -10.171868         -276.79060
     13       2.00000         -10.167542         -276.67291
     14       2.00000         -10.167542         -276.67291
     15       2.00000         -10.163541         -276.56403
     16       2.00000         -10.163539         -276.56398
     17       2.00000         -10.162037         -276.52310
     18       2.00000         -10.161661         -276.51285
     19       2.00000          -1.017713          -27.69337
     20       2.00000          -1.001677          -27.25703
     21       2.00000          -0.970574          -26.41067
     22       2.00000          -0.952591          -25.92132
     23       2.00000          -0.908259          -24.71499
     24       2.00000          -0.903478          -24.58488
     25       2.00000          -0.880574          -23.96165
     26       2.00000          -0.868082          -23.62172
     27       2.00000          -0.860502          -23.41546
     28       2.00000          -0.780627          -21.24194
     29       2.00000          -0.769984          -20.95233
     30       2.00000          -0.769569          -20.94105
     31       2.00000          -0.745814          -20.29462
     32       2.00000          -0.736107          -20.03048
     33       2.00000          -0.683581          -18.60119
     34       2.00000          -0.674339          -18.34970
     35       2.00000          -0.667982          -18.17672
     36       2.00000          -0.647881          -17.62975
     37       2.00000          -0.630055          -17.14466
     38       2.00000          -0.628240          -17.09528
     39       2.00000          -0.608144          -16.54843
     40       2.00000          -0.598230          -16.27866
     41       2.00000          -0.586144          -15.94978
     42       2.00000          -0.581722          -15.82945
     43       2.00000          -0.572249          -15.57170
     44       2.00000          -0.562738          -15.31288
     45       2.00000          -0.555066          -15.10412
     46       2.00000          -0.537210          -14.61822
     47       2.00000          -0.535311          -14.56655
     48       2.00000          -0.524944          -14.28445
     49       2.00000          -0.514767          -14.00751
     50       2.00000          -0.513541          -13.97417
     51       2.00000          -0.498890          -13.57550
     52       2.00000          -0.498515          -13.56529
     53       2.00000          -0.476479          -12.96566
     54       2.00000          -0.475756          -12.94598
     55       2.00000          -0.461709          -12.56373
     56       2.00000          -0.427701          -11.63834
     57       2.00000          -0.419912          -11.42639
     58       2.00000          -0.393903          -10.71866
     59       2.00000          -0.380331          -10.34932
     60       2.00000          -0.366291           -9.96729
     61       0.00000          -0.248709           -6.76773
     62       0.00000          -0.234729           -6.38730
     63       0.00000          -0.223431           -6.07987
     64       0.00000          -0.186647           -5.07892
     65       0.00000          -0.183970           -5.00608
     66       0.00000          -0.134001           -3.64635
     67       0.00000          -0.111259           -3.02752
     68       0.00000          -0.072570           -1.97473
     69       0.00000          -0.068722           -1.87002
     70       0.00000          -0.064969           -1.76789
     71       0.00000          -0.050471           -1.37340
     72       0.00000          -0.043846           -1.19310
     73       0.00000          -0.038258           -1.04104
     74       0.00000          -0.029575           -0.80477
     75       0.00000          -0.014953           -0.40689
     76       0.00000          -0.013248           -0.36051
     77       0.00000          -0.003080           -0.08380
     78       0.00000          -0.001469           -0.03997
     79       0.00000          -0.000045           -0.00123
     80       0.00000           0.000685            0.01865
     81       0.00000           0.006265            0.17047
     82       0.00000           0.021503            0.58512
     83       0.00000           0.026683            0.72609
     84       0.00000           0.026777            0.72864
     85       0.00000           0.039077            1.06333
     86       0.00000           0.043212            1.17586
     87       0.00000           0.044141            1.20113
     88       0.00000           0.045032            1.22539
     89       0.00000           0.057121            1.55433
     90       0.00000           0.061820            1.68220
     91       0.00000           0.061850            1.68301
     92       0.00000           0.064834            1.76423
     93       0.00000           0.065447            1.78091
     94       0.00000           0.075326            2.04972
     95       0.00000           0.079550            2.16466
     96       0.00000           0.083260            2.26561
     97       0.00000           0.089809            2.44383
     98       0.00000           0.090912            2.47385
     99       0.00000           0.096818            2.63455
    100       0.00000           0.102891            2.79981
    101       0.00000           0.105889            2.88139
    102       0.00000           0.107916            2.93654
    103       0.00000           0.115364            3.13921
    104       0.00000           0.123615            3.36374
    105       0.00000           0.127370            3.46591
    106       0.00000           0.129397            3.52108
    107       0.00000           0.130317            3.54611
    108       0.00000           0.138144            3.75908
    109       0.00000           0.139110            3.78537
    110       0.00000           0.139292            3.79032
    111       0.00000           0.146713            3.99227
    112       0.00000           0.151671            4.12717
    113       0.00000           0.152891            4.16038
    114       0.00000           0.164896            4.48705
    115       0.00000           0.174910            4.75954
    116       0.00000           0.181289            4.93312
    117       0.00000           0.182812            4.97457
    118       0.00000           0.184811            5.02896
    119       0.00000           0.186036            5.06230
    120       0.00000           0.186952            5.08723
    121       0.00000           0.192157            5.22886
    122       0.00000           0.192298            5.23268
    123       0.00000           0.199213            5.42087
    124       0.00000           0.202652            5.51445
    125       0.00000           0.223640            6.08555
    126       0.00000           0.226091            6.15224
    127       0.00000           0.228222            6.21023
    128       0.00000           0.235169            6.39927
    129       0.00000           0.236712            6.44127
    130       0.00000           0.238024            6.47695
    131       0.00000           0.244673            6.65790
    132       0.00000           0.267023            7.26607

  Highest occupied state (VBM) at     -9.96729312 eV
  | Occupation number:      2.00000000

  Lowest unoccupied state (CBM) at    -6.76772938 eV
  | Occupation number:      0.00000000

  Overall HOMO-LUMO gap:      3.19956374 eV.
  Calculating total energy contributions from superposition of free atom densities.

  Total energy components:
  | Sum of eigenvalues            :        -420.52766907 Ha      -11443.14009602 eV
  | XC energy correction          :         -99.59553129 Ha       -2710.13229637 eV
  | XC potential correction       :         127.92873384 Ha        3481.11796519 eV
  | Free-atom electrostatic energy:        -301.57105190 Ha       -8206.16584722 eV
  | Hartree energy correction     :           0.00000000 Ha           0.00000000 eV
  | Entropy correction            :           0.00000000 Ha           0.00000000 eV
  | ---------------------------
  | Total energy                  :        -693.76551841 Ha      -18878.32027442 eV
  | Total energy, T -> 0          :        -693.76551841 Ha      -18878.32027442 eV  <-- do not rely on this value for anything but (periodic) metals
  | Electronic free energy        :        -693.76551841 Ha      -18878.32027442 eV

  Derived energy quantities:
  | Kinetic energy                :         686.99136590 Ha       18693.98620572 eV
  | Electrostatic energy          :       -1281.16135303 Ha      -34862.17418378 eV
  | Energy correction for multipole
  | error in Hartree potential    :           0.00000000 Ha           0.00000000 eV
  | Sum of eigenvalues per atom                           :        -381.43800320 eV
  | Total energy (T->0) per atom                          :        -629.27734248 eV  <-- do not rely on this value for anything but (periodic) metals
  | Electronic free energy per atom                       :        -629.27734248 eV
  Initialize hartree_potential_storage
  Max. number of atoms included in rho_multipole:           30

  End scf initialization - timings             :  max(cpu_time)    wall_clock(cpu1)
  | Time for scf. initialization               :        3.290 s           3.366 s
  | Boundary condition initialization          :        0.001 s           0.004 s
  | Integration                                :        2.435 s           2.445 s
  | Solution of K.-S. eqns.                    :        0.106 s           0.125 s
  | Grid partitioning                          :        0.349 s           0.353 s
  | Preloading free-atom quantities on grid    :        0.014 s           0.018 s
  | Free-atom superposition energy             :        0.032 s           0.032 s
  | Total energy evaluation                    :        0.001 s           0.005 s

  Partial memory accounting:
  | Current value for overall tracked memory usage on task 0  :           1.950 MB
  | Peak value for overall tracked memory usage on task 0     :          18.334 MB after allocating zora_vector2
  | Largest tracked array allocation on task 0 so far         :           4.621 MB  when allocating hamiltonian_shell
  Note:  These values currently only include a subset of arrays which are explicitly tracked.
  The "true" memory usage will be greater.
------------------------------------------------------------

------------------------------------------------------------
          Begin self-consistency iteration #    1

  Date     :  20210620, Time     :  164345.261
------------------------------------------------------------
  Evaluating new KS density.
  Integration grid: deviation in total charge (<rho> - N_e) =   4.263256E-14
  Pulay mixing of updated and previous charge densities.

  Evaluating partitioned Hartree potential by multipole expansion.
  | Analytical far-field extrapolation by fixed multipoles:
  | Hartree multipole sum: apparent total charge =   0.161066E-03
  Summing up the Hartree potential with load balancing.
  Time summed over all CPUs for potential: real work       10.695 s, elapsed       16.915 s
  | RMS charge density error from multipole expansion :   0.103121E-01

  Start compute_balanced_batch_distribution
  Done load balancing, time needed:      0.003 s
  Integrating Hamiltonian matrix: batch-based integration with load balancing
  Time summed over all CPUs for integration: real work       72.251 s, elapsed       80.385 s
  Time get_set_full_local_matrix_scalapack:     0.008105 s
  Start compute_balanced_batch_distribution
  Done load balancing, time needed:      0.004 s

  Updating Kohn-Sham eigenvalues and eigenvectors using ELSI and the ELPA eigensolver.
  Finished transformation to standard eigenproblem
  | Time :     0.004 s
  Starting ELPA eigensolver
  Finished solving standard eigenproblem
  | Time :     0.039 s
  Finished back-transformation of eigenvectors
  | Time :     0.002 s

  Obtaining occupation numbers and chemical potential using ELSI.
  | Chemical potential (Fermi level):    -4.23365796 eV
  Writing Kohn-Sham eigenvalues.

  State    Occupation    Eigenvalue [Ha]    Eigenvalue [eV]
      1       2.00000          -9.981790         -271.61832
      2       2.00000          -9.981410         -271.60799
      3       2.00000          -9.976433         -271.47254
      4       2.00000          -9.976432         -271.47254
      5       2.00000          -9.965431         -271.17318
      6       2.00000          -9.965431         -271.17317
      7       2.00000          -9.950133         -270.75690
      8       2.00000          -9.950133         -270.75689
      9       2.00000          -9.948712         -270.71822
     10       2.00000          -9.948712         -270.71821
     11       2.00000          -9.945832         -270.63985
     12       2.00000          -9.945832         -270.63985
     13       2.00000          -9.945667         -270.63536
     14       2.00000          -9.945667         -270.63536
     15       2.00000          -9.941830         -270.53095
     16       2.00000          -9.941830         -270.53095
     17       2.00000          -9.940032         -270.48202
     18       2.00000          -9.940032         -270.48202
     19       2.00000          -0.868406          -23.63054
     20       2.00000          -0.845038          -22.99466
     21       2.00000          -0.812596          -22.11186
     22       2.00000          -0.797159          -21.69181
     23       2.00000          -0.759948          -20.67924
     24       2.00000          -0.755807          -20.56656
     25       2.00000          -0.727632          -19.79986
     26       2.00000          -0.714901          -19.45344
     27       2.00000          -0.708600          -19.28197
     28       2.00000          -0.633661          -17.24278
     29       2.00000          -0.628359          -17.09853
     30       2.00000          -0.627309          -17.06995
     31       2.00000          -0.602718          -16.40080
     32       2.00000          -0.591510          -16.09580
     33       2.00000          -0.547430          -14.89633
     34       2.00000          -0.538664          -14.65781
     35       2.00000          -0.521455          -14.18950
     36       2.00000          -0.515205          -14.01945
     37       2.00000          -0.496060          -13.49847
     38       2.00000          -0.480953          -13.08740
     39       2.00000          -0.471675          -12.83493
     40       2.00000          -0.452556          -12.31468
     41       2.00000          -0.448300          -12.19885
     42       2.00000          -0.444487          -12.09511
     43       2.00000          -0.431602          -11.74450
     44       2.00000          -0.427717          -11.63878
     45       2.00000          -0.416962          -11.34611
     46       2.00000          -0.413671          -11.25657
     47       2.00000          -0.412928          -11.23633
     48       2.00000          -0.392971          -10.69327
     49       2.00000          -0.386299          -10.51172
     50       2.00000          -0.373635          -10.16712
     51       2.00000          -0.364714           -9.92438
     52       2.00000          -0.354003           -9.63290
     53       2.00000          -0.348203           -9.47509
     54       2.00000          -0.340423           -9.26338
     55       2.00000          -0.334332           -9.09765
     56       2.00000          -0.301243           -8.19724
     57       2.00000          -0.293596           -7.98916
     58       2.00000          -0.264082           -7.18604
     59       2.00000          -0.251509           -6.84390
     60       2.00000          -0.237712           -6.46847
     61       0.00000          -0.121981           -3.31926
     62       0.00000          -0.109434           -2.97784
     63       0.00000          -0.099618           -2.71074
     64       0.00000          -0.061793           -1.68147
     65       0.00000          -0.060591           -1.64876
     66       0.00000          -0.026965           -0.73375
     67       0.00000          -0.024696           -0.67200
     68       0.00000          -0.020334           -0.55333
     69       0.00000          -0.008228           -0.22390
     70       0.00000          -0.003253           -0.08852
     71       0.00000          -0.002001           -0.05444
     72       0.00000           0.013528            0.36812
     73       0.00000           0.014872            0.40468
     74       0.00000           0.019154            0.52120
     75       0.00000           0.035445            0.96452
     76       0.00000           0.040289            1.09633
     77       0.00000           0.056884            1.54789
     78       0.00000           0.062480            1.70017
     79       0.00000           0.070582            1.92062
     80       0.00000           0.072366            1.96919
     81       0.00000           0.084603            2.30218
     82       0.00000           0.091145            2.48019
     83       0.00000           0.093203            2.53618
     84       0.00000           0.097818            2.66176
     85       0.00000           0.105101            2.85995
     86       0.00000           0.108514            2.95280
     87       0.00000           0.116654            3.17432
     88       0.00000           0.121633            3.30980
     89       0.00000           0.122297            3.32788
     90       0.00000           0.127800            3.47762
     91       0.00000           0.131776            3.58582
     92       0.00000           0.135528            3.68791
     93       0.00000           0.135742            3.69372
     94       0.00000           0.144459            3.93094
     95       0.00000           0.149400            4.06538
     96       0.00000           0.155268            4.22507
     97       0.00000           0.155586            4.23372
     98       0.00000           0.158085            4.30171
     99       0.00000           0.172289            4.68823
    100       0.00000           0.175528            4.77637
    101       0.00000           0.179887            4.89497
    102       0.00000           0.182928            4.97771
    103       0.00000           0.190971            5.19660
    104       0.00000           0.191753            5.21786
    105       0.00000           0.192374            5.23478
    106       0.00000           0.192540            5.23927
    107       0.00000           0.193083            5.25404
    108       0.00000           0.194723            5.29869
    109       0.00000           0.208200            5.66541
    110       0.00000           0.210264            5.72158
    111       0.00000           0.213268            5.80331
    112       0.00000           0.221820            6.03604
    113       0.00000           0.234197            6.37283
    114       0.00000           0.235259            6.40172
    115       0.00000           0.237244            6.45574
    116       0.00000           0.240018            6.53122
    117       0.00000           0.248018            6.74891
    118       0.00000           0.249717            6.79515
    119       0.00000           0.253300            6.89265
    120       0.00000           0.259649            7.06540
    121       0.00000           0.264053            7.18526
    122       0.00000           0.270742            7.36727
    123       0.00000           0.277391            7.54819
    124       0.00000           0.286414            7.79371
    125       0.00000           0.294467            8.01287
    126       0.00000           0.297356            8.09146
    127       0.00000           0.305380            8.30981
    128       0.00000           0.305742            8.31966
    129       0.00000           0.306684            8.34528
    130       0.00000           0.310473            8.44841
    131       0.00000           0.324159            8.82082
    132       0.00000           0.327672            8.91641

  Highest occupied state (VBM) at     -6.46847386 eV
  | Occupation number:      2.00000000

  Lowest unoccupied state (CBM) at    -3.31926380 eV
  | Occupation number:      0.00000000

  Overall HOMO-LUMO gap:      3.14921006 eV.

  Total energy components:
  | Sum of eigenvalues            :        -401.05473339 Ha      -10913.25455581 eV
  | XC energy correction          :        -100.93618397 Ha       -2746.61331184 eV
  | XC potential correction       :         129.66971013 Ha        3528.49234031 eV
  | Free-atom electrostatic energy:        -301.57105190 Ha       -8206.16584722 eV
  | Hartree energy correction     :         -19.21557687 Ha        -522.88245072 eV
  | Entropy correction            :           0.00000000 Ha           0.00000000 eV
  | ---------------------------
  | Total energy                  :        -693.10783600 Ha      -18860.42382528 eV
  | Total energy, T -> 0          :        -693.10783600 Ha      -18860.42382528 eV  <-- do not rely on this value for anything but (periodic) metals
  | Electronic free energy        :        -693.10783600 Ha      -18860.42382528 eV

  Derived energy quantities:
  | Kinetic energy                :         693.08155884 Ha       18859.70878748 eV
  | Electrostatic energy          :       -1285.25321087 Ha      -34973.51930092 eV
  | Energy correction for multipole
  | error in Hartree potential    :          -0.04423851 Ha          -1.20379107 eV
  | Sum of eigenvalues per atom                           :        -363.77515186 eV
  | Total energy (T->0) per atom                          :        -628.68079418 eV  <-- do not rely on this value for anything but (periodic) metals
  | Electronic free energy per atom                       :        -628.68079418 eV

  Self-consistency convergence accuracy:
  | Change of charge density      :  0.8624E+00
  | Change of sum of eigenvalues  :  0.5299E+03 eV
  | Change of total energy        :  0.1790E+02 eV

  End self-consistency iteration #     1       :  max(cpu_time)    wall_clock(cpu1)
  | Time for this iteration                    :        2.337 s           2.345 s
  | Charge density update                      :        0.505 s           0.508 s
  | Density mixing                             :        0.002 s           0.003 s
  | Hartree multipole update                   :        0.007 s           0.009 s
  | Hartree multipole summation                :        0.309 s           0.311 s
  | Integration                                :        1.439 s           1.439 s
  | Solution of K.-S. eqns.                    :        0.064 s           0.064 s
  | Total energy evaluation                    :        0.000 s           0.000 s

  Partial memory accounting:
  | Current value for overall tracked memory usage on task 0  :           1.950 MB
  | Peak value for overall tracked memory usage on task 0     :          18.334 MB after allocating zora_vector2
  | Largest tracked array allocation on task 0 so far         :           4.621 MB  when allocating hamiltonian_shell
  Note:  These values currently only include a subset of arrays which are explicitly tracked.
  The "true" memory usage will be greater.
------------------------------------------------------------

------------------------------------------------------------
          Begin self-consistency iteration #    2

  Date     :  20210620, Time     :  164347.607
------------------------------------------------------------
  Evaluating new KS density.
  Integration grid: deviation in total charge (<rho> - N_e) =   1.421085E-13
  Pulay mixing of updated and previous charge densities.

  Evaluating partitioned Hartree potential by multipole expansion.
  | Analytical far-field extrapolation by fixed multipoles:
  | Hartree multipole sum: apparent total charge =   0.161296E-03
  Summing up the Hartree potential with load balancing.
  Time summed over all CPUs for potential: real work       10.829 s, elapsed       12.916 s
  | RMS charge density error from multipole expansion :   0.180131E-01

  Integrating Hamiltonian matrix: batch-based integration with load balancing
  Time summed over all CPUs for integration: real work       73.547 s, elapsed       76.830 s
  Time get_set_full_local_matrix_scalapack:     0.010231 s

  Updating Kohn-Sham eigenvalues and eigenvectors using ELSI and the ELPA eigensolver.
  Finished transformation to standard eigenproblem
  | Time :     0.005 s
  Starting ELPA eigensolver
  Finished solving standard eigenproblem
  | Time :     0.039 s
  Finished back-transformation of eigenvectors
  | Time :     0.002 s

  Obtaining occupation numbers and chemical potential using ELSI.
  | Chemical potential (Fermi level):    -3.39931373 eV
  Highest occupied state (VBM) at     -5.36658467 eV
  | Occupation number:      2.00000000

  Lowest unoccupied state (CBM) at    -2.21583109 eV
  | Occupation number:      0.00000000

  Overall HOMO-LUMO gap:      3.15075358 eV.

  Checking to see if s.c.f. parameters should be adjusted.

  Total energy components:
  | Sum of eigenvalues            :        -394.79545956 Ha      -10742.93104900 eV
  | XC energy correction          :        -101.50597567 Ha       -2762.11813309 eV
  | XC potential correction       :         130.40247287 Ha        3548.43182893 eV
  | Free-atom electrostatic energy:        -301.57105190 Ha       -8206.16584722 eV
  | Hartree energy correction     :         -25.55631900 Ha        -695.42282276 eV
  | Entropy correction            :           0.00000000 Ha           0.00000000 eV
  | ---------------------------
  | Total energy                  :        -693.02633327 Ha      -18858.20602313 eV
  | Total energy, T -> 0          :        -693.02633327 Ha      -18858.20602313 eV  <-- do not rely on this value for anything but (periodic) metals
  | Electronic free energy        :        -693.02633327 Ha      -18858.20602313 eV

  Derived energy quantities:
  | Kinetic energy                :         693.11545641 Ha       18860.63118716 eV
  | Electrostatic energy          :       -1284.63581400 Ha      -34956.71907721 eV
  | Energy correction for multipole
  | error in Hartree potential    :          -0.07122739 Ha          -1.93819596 eV
  | Sum of eigenvalues per atom                           :        -358.09770163 eV
  | Total energy (T->0) per atom                          :        -628.60686744 eV  <-- do not rely on this value for anything but (periodic) metals
  | Electronic free energy per atom                       :        -628.60686744 eV

  Self-consistency convergence accuracy:
  | Change of charge density      :  0.4198E+00
  | Change of sum of eigenvalues  :  0.1703E+03 eV
  | Change of total energy        :  0.2218E+01 eV

  End self-consistency iteration #     2       :  max(cpu_time)    wall_clock(cpu1)
  | Time for this iteration                    :        2.192 s           2.198 s
  | Charge density update                      :        0.503 s           0.503 s
  | Density mixing                             :        0.003 s           0.004 s
  | Hartree multipole update                   :        0.007 s           0.007 s
  | Hartree multipole summation                :        0.233 s           0.233 s
  | Integration                                :        1.375 s           1.375 s
  | Solution of K.-S. eqns.                    :        0.069 s           0.069 s
  | Total energy evaluation                    :        0.001 s           0.003 s

  Partial memory accounting:
  | Current value for overall tracked memory usage on task 0  :           1.950 MB
  | Peak value for overall tracked memory usage on task 0     :          18.334 MB after allocating zora_vector2
  | Largest tracked array allocation on task 0 so far         :           4.621 MB  when allocating hamiltonian_shell
  Note:  These values currently only include a subset of arrays which are explicitly tracked.
  The "true" memory usage will be greater.
------------------------------------------------------------

------------------------------------------------------------
          Begin self-consistency iteration #    3

  Date     :  20210620, Time     :  164349.808
------------------------------------------------------------
  Evaluating new KS density.
  Integration grid: deviation in total charge (<rho> - N_e) =   1.136868E-13
  Pulay mixing of updated and previous charge densities.

  Evaluating partitioned Hartree potential by multipole expansion.
  | Analytical far-field extrapolation by fixed multipoles:
  | Hartree multipole sum: apparent total charge =   0.162118E-03
  Summing up the Hartree potential with load balancing.
  Time summed over all CPUs for potential: real work       10.826 s, elapsed       12.899 s
  | RMS charge density error from multipole expansion :   0.216784E-01

  Integrating Hamiltonian matrix: batch-based integration with load balancing
  Time summed over all CPUs for integration: real work       73.434 s, elapsed       76.476 s
  Time get_set_full_local_matrix_scalapack:     0.010205 s

  Updating Kohn-Sham eigenvalues and eigenvectors using ELSI and the ELPA eigensolver.
  Finished transformation to standard eigenproblem
  | Time :     0.005 s
  Starting ELPA eigensolver
  Finished solving standard eigenproblem
  | Time :     0.039 s
  Finished back-transformation of eigenvectors
  | Time :     0.001 s

  Obtaining occupation numbers and chemical potential using ELSI.
  | Chemical potential (Fermi level):    -3.38543606 eV
  Highest occupied state (VBM) at     -5.39965387 eV
  | Occupation number:      2.00000000

  Lowest unoccupied state (CBM) at    -2.24588807 eV
  | Occupation number:      0.00000000

  Overall HOMO-LUMO gap:      3.15376580 eV.

  Total energy components:
  | Sum of eigenvalues            :        -394.68414659 Ha      -10739.90206900 eV
  | XC energy correction          :        -101.58365974 Ha       -2764.23202405 eV
  | XC potential correction       :         130.49878634 Ha        3551.05265196 eV
  | Free-atom electrostatic energy:        -301.57105190 Ha       -8206.16584722 eV
  | Hartree energy correction     :         -25.68242790 Ha        -698.85442049 eV
  | Entropy correction            :           0.00000000 Ha           0.00000000 eV
  | ---------------------------
  | Total energy                  :        -693.02249978 Ha      -18858.10170880 eV
  | Total energy, T -> 0          :        -693.02249978 Ha      -18858.10170880 eV  <-- do not rely on this value for anything but (periodic) metals
  | Electronic free energy        :        -693.02249978 Ha      -18858.10170880 eV

  Derived energy quantities:
  | Kinetic energy                :         691.65431060 Ha       18820.87138674 eV
  | Electrostatic energy          :       -1283.09315064 Ha      -34914.74107149 eV
  | Energy correction for multipole
  | error in Hartree potential    :          -0.08114100 Ha          -2.20795892 eV
  | Sum of eigenvalues per atom                           :        -357.99673563 eV
  | Total energy (T->0) per atom                          :        -628.60339029 eV  <-- do not rely on this value for anything but (periodic) metals
  | Electronic free energy per atom                       :        -628.60339029 eV

  Self-consistency convergence accuracy:
  | Change of charge density      :  0.1507E+00
  | Change of sum of eigenvalues  :  0.3029E+01 eV
  | Change of total energy        :  0.1043E+00 eV

  End self-consistency iteration #     3       :  max(cpu_time)    wall_clock(cpu1)
  | Time for this iteration                    :        2.180 s           2.177 s
  | Charge density update                      :        0.501 s           0.498 s
  | Density mixing                             :        0.003 s           0.004 s
  | Hartree multipole update                   :        0.007 s           0.007 s
  | Hartree multipole summation                :        0.232 s           0.232 s
  | Integration                                :        1.368 s           1.368 s
  | Solution of K.-S. eqns.                    :        0.064 s           0.065 s
  | Total energy evaluation                    :        0.000 s           0.002 s

  Partial memory accounting:
  | Current value for overall tracked memory usage on task 0  :           1.950 MB
  | Peak value for overall tracked memory usage on task 0     :          18.334 MB after allocating zora_vector2
  | Largest tracked array allocation on task 0 so far         :           4.621 MB  when allocating hamiltonian_shell
  Note:  These values currently only include a subset of arrays which are explicitly tracked.
  The "true" memory usage will be greater.
------------------------------------------------------------

------------------------------------------------------------
          Begin self-consistency iteration #    4

  Date     :  20210620, Time     :  164351.988
------------------------------------------------------------
  Evaluating new KS density.
  Integration grid: deviation in total charge (<rho> - N_e) =   8.526513E-14
  Pulay mixing of updated and previous charge densities.

  Evaluating partitioned Hartree potential by multipole expansion.
  | Analytical far-field extrapolation by fixed multipoles:
  | Hartree multipole sum: apparent total charge =   0.161996E-03
  Summing up the Hartree potential with load balancing.
  Time summed over all CPUs for potential: real work       10.824 s, elapsed       12.908 s
  | RMS charge density error from multipole expansion :   0.221000E-01

  Integrating Hamiltonian matrix: batch-based integration with load balancing
  Time summed over all CPUs for integration: real work       73.634 s, elapsed       76.771 s
  Time get_set_full_local_matrix_scalapack:     0.010259 s

  Updating Kohn-Sham eigenvalues and eigenvectors using ELSI and the ELPA eigensolver.
[...]
  | Solution of K.-S. eqns.                    :        0.064 s           0.064 s
  | Total energy evaluation                    :        0.000 s           0.002 s

  Partial memory accounting:
  | Current value for overall tracked memory usage on task 0  :           1.951 MB
  | Peak value for overall tracked memory usage on task 0     :          18.334 MB after allocating zora_vector2
  | Largest tracked array allocation on task 0 so far         :           4.621 MB  when allocating hamiltonian_shell
  Note:  These values currently only include a subset of arrays which are explicitly tracked.
  The "true" memory usage will be greater.
------------------------------------------------------------
  |------------------------------------------------------
  | Final ELSI Output
  |------------------------------------------------------
  |
  | Physical Properties
  |   Number of electrons       :        0.12000000E+03
  |   Number of spins           :                     1
  |   Number of k-points        :                     1
  |   Number of states          :                   132
  |
  | Matrix Properties
  |   Matrix format             :           BLACS_DENSE
  |   Number of basis functions :                   882
  |   Matrix sparsity           :        0.47277112E-01
  |
  | Computational Details
  |   Parallel mode             :            MULTI_PROC
  |   Number of MPI tasks       :                    56
  |   Solver requested          :                  ELPA
  |   Number of ELSI calls      :                    16
  |
  |------------------------------------------------------
  | ELSI Project (c)  elsi-interchange.org
  |------------------------------------------------------

------------------------------------------------------------
          Post-processing: scaled ZORA corrections to eigenvalues and total energy.

  Date     :  20210620, Time     :  164418.233
------------------------------------------------------------
  Computing correction matrix for scaled ZORA eigenvalues.
  Evaluating scaled zora correction for each Kohn-Sham eigenstate.
  Evaluating scaled zora correction for each Kohn-Sham eigenstate.
  Time get_set_sparse_local_matrix_scalapack:     1.386834 s
  Writing Kohn-Sham eigenvalues.

  State    Occupation    Eigenvalue [Ha]    Eigenvalue [eV]
      1       2.00000          -9.909849         -269.66071
      2       2.00000          -9.909477         -269.65059
      3       2.00000          -9.908749         -269.63078
      4       2.00000          -9.908742         -269.63059
      5       2.00000          -9.904029         -269.50233
      6       2.00000          -9.904029         -269.50233
      7       2.00000          -9.895670         -269.27489
      8       2.00000          -9.895670         -269.27489
      9       2.00000          -9.894964         -269.25568
     10       2.00000          -9.894964         -269.25568
     11       2.00000          -9.893934         -269.22764
     12       2.00000          -9.893934         -269.22763
     13       2.00000          -9.893787         -269.22365
     14       2.00000          -9.893787         -269.22365
     15       2.00000          -9.892897         -269.19941
     16       2.00000          -9.892896         -269.19941
     17       2.00000          -9.892647         -269.19262
     18       2.00000          -9.892647         -269.19262
     19       2.00000          -0.816370          -22.21455
     20       2.00000          -0.795649          -21.65071
     21       2.00000          -0.761607          -20.72438
     22       2.00000          -0.742928          -20.21610
     23       2.00000          -0.705239          -19.19052
     24       2.00000          -0.702222          -19.10844
     25       2.00000          -0.672676          -18.30446
     26       2.00000          -0.660856          -17.98282
     27       2.00000          -0.651376          -17.72484
     28       2.00000          -0.576861          -15.69719
     29       2.00000          -0.570486          -15.52371
     30       2.00000          -0.570406          -15.52153
     31       2.00000          -0.544600          -14.81933
     32       2.00000          -0.533132          -14.50725
     33       2.00000          -0.489291          -13.31429
     34       2.00000          -0.480564          -13.07681
     35       2.00000          -0.462081          -12.57385
     36       2.00000          -0.454153          -12.35813
     37       2.00000          -0.437440          -11.90335
     38       2.00000          -0.422644          -11.50073
     39       2.00000          -0.411308          -11.19226
     40       2.00000          -0.394395          -10.73204
     41       2.00000          -0.387796          -10.55246
     42       2.00000          -0.385492          -10.48978
     43       2.00000          -0.374589          -10.19308
     44       2.00000          -0.372145          -10.12659
     45       2.00000          -0.365322           -9.94091
     46       2.00000          -0.356259           -9.69431
     47       2.00000          -0.351578           -9.56694
     48       2.00000          -0.349213           -9.50258
     49       2.00000          -0.332657           -9.05207
     50       2.00000          -0.313329           -8.52611
     51       2.00000          -0.309734           -8.42829
     52       2.00000          -0.304462           -8.28482
     53       2.00000          -0.294026           -8.00085
     54       2.00000          -0.292150           -7.94981
     55       2.00000          -0.278164           -7.56923
     56       2.00000          -0.261274           -7.10964
     57       2.00000          -0.254458           -6.92415
     58       2.00000          -0.223927           -6.09337
     59       2.00000          -0.211392           -5.75227
     60       2.00000          -0.196031           -5.33427
     61       0.00000          -0.080036           -2.17788
     62       0.00000          -0.068180           -1.85527
     63       0.00000          -0.059450           -1.61772
     64       0.00000          -0.021963           -0.59765
     65       0.00000          -0.019072           -0.51898
     66       0.00000          -0.005183           -0.14104
     67       0.00000          -0.000892           -0.02427
     68       0.00000           0.000923            0.02512
     69       0.00000           0.017462            0.47517
     70       0.00000           0.018991            0.51676
     71       0.00000           0.033885            0.92205
     72       0.00000           0.036362            0.98946
     73       0.00000           0.038894            1.05835
     74       0.00000           0.055693            1.51549
     75       0.00000           0.057636            1.56835
     76       0.00000           0.062156            1.69134
     77       0.00000           0.082362            2.24120
     78       0.00000           0.085282            2.32065
     79       0.00000           0.093762            2.55139
     80       0.00000           0.105736            2.87723
     81       0.00000           0.110637            3.01060
     82       0.00000           0.113231            3.08118
     83       0.00000           0.119957            3.26420
     84       0.00000           0.121431            3.30430
     85       0.00000           0.123280            3.35463
     86       0.00000           0.136512            3.71468
     87       0.00000           0.137916            3.75287
     88       0.00000           0.151280            4.11653
     89       0.00000           0.151732            4.12885
     90       0.00000           0.159420            4.33804
     91       0.00000           0.159748            4.34696
     92       0.00000           0.166123            4.52045
     93       0.00000           0.174608            4.75134
     94       0.00000           0.176112            4.79225
     95       0.00000           0.178700            4.86267
     96       0.00000           0.183721            4.99929
     97       0.00000           0.192775            5.24568
     98       0.00000           0.193103            5.25461
     99       0.00000           0.195555            5.32133
    100       0.00000           0.206679            5.62401
    101       0.00000           0.211532            5.75609
    102       0.00000           0.212305            5.77711
    103       0.00000           0.212401            5.77971
    104       0.00000           0.217258            5.91188
    105       0.00000           0.222750            6.06135
    106       0.00000           0.225059            6.12416
    107       0.00000           0.225416            6.13387
    108       0.00000           0.228553            6.21924
    109       0.00000           0.243018            6.61285
    110       0.00000           0.245637            6.68412
    111       0.00000           0.249629            6.79275
    112       0.00000           0.255314            6.94744
    113       0.00000           0.260965            7.10121
    114       0.00000           0.264281            7.19145
    115       0.00000           0.266769            7.25915
    116       0.00000           0.270906            7.37172
    117       0.00000           0.271295            7.38233
    118       0.00000           0.276585            7.52627
    119       0.00000           0.287961            7.83583
    120       0.00000           0.293890            7.99715
    121       0.00000           0.304270            8.27962
    122       0.00000           0.305731            8.31936
    123       0.00000           0.307273            8.36133
    124       0.00000           0.318353            8.66283
    125       0.00000           0.329443            8.96461
    126       0.00000           0.330151            8.98386
    127       0.00000           0.331848            9.03004
    128       0.00000           0.336758            9.16364
    129       0.00000           0.340025            9.25255
    130       0.00000           0.348026            9.47026
    131       0.00000           0.354566            9.64825
    132       0.00000           0.359815            9.79106

  Highest occupied state (VBM) at     -5.33427021 eV
  | Occupation number:      2.00000000

  Lowest unoccupied state (CBM) at    -2.17787878 eV
  | Occupation number:      0.00000000

  Overall HOMO-LUMO gap:      3.15639143 eV.

  Total energy components:
  | Sum of eigenvalues            :        -394.48591019 Ha      -10734.50778214 eV
  | XC energy correction          :        -101.54471556 Ha       -2763.17229914 eV
  | XC potential correction       :         130.44794926 Ha        3549.66930466 eV
  | Free-atom electrostatic energy:        -301.57105190 Ha       -8206.16584722 eV
  | Hartree energy correction     :         -25.71460169 Ha        -699.72991375 eV
  | Entropy correction            :           0.00000000 Ha           0.00000000 eV
  | ---------------------------
  | Total energy                  :        -692.86833008 Ha      -18853.90653759 eV
  | Total energy, T -> 0          :        -692.86833008 Ha      -18853.90653759 eV  <-- do not rely on this value for anything but (periodic) metals
  | Electronic free energy        :        -692.86833008 Ha      -18853.90653759 eV

  Derived energy quantities:
  | Kinetic energy                :         691.25094374 Ha       18809.89521610 eV
  | Electrostatic energy          :       -1282.57455825 Ha      -34900.62945455 eV
  | Energy correction for multipole
  | error in Hartree potential    :          -0.08257725 Ha          -2.24704143 eV
  | Sum of eigenvalues per atom                           :        -357.81692607 eV
  | Total energy (T->0) per atom                          :        -628.46355125 eV  <-- do not rely on this value for anything but (periodic) metals
  | Electronic free energy per atom                       :        -628.46355125 eV
  End evaluation of scaled ZORA corrections.
  | Time for scaled ZORA corrections           :        2.237 s           2.250 s
------------------------------------------------------------

  Energy and forces in a compact form:
  | Total energy uncorrected      :         -0.188539065375922E+05 eV
  | Total energy corrected        :         -0.188539065375922E+05 eV  <-- do not rely on this value for anything but (periodic) metals
  | Electronic free energy        :         -0.188539065375922E+05 eV

  ------------------------------------ 
  Start decomposition of the XC Energy 
  ------------------------------------ 
  X and C from original XC functional choice 
  Hartree-Fock Energy :          0.000000000 Ha              0.000000000 eV
  X Energy            :        -97.535455904 Ha          -2654.074792992 eV
  C Energy            :         -4.009259659 Ha           -109.097506150 eV
  Total XC Energy     :       -101.544715564 Ha          -2763.172299142 eV
  ------------------------------------ 
  LDA X and C from self-consistent density 
  X Energy LDA        :        -88.328525885 Ha          -2403.541480167 eV
  C Energy LDA        :         -7.732615271 Ha           -210.415167336 eV
  ------------------------------------ 
  End decomposition of the XC Energy 
  ------------------------------------ 

------------------------------------------------------------

------------------------------------------------------------------------------
  Final output of selected total energy values:

  The following output summarizes some interesting total energy values
  at the end of a run (AFTER all relaxation, molecular dynamics, etc.).

  | Total energy of the DFT / Hartree-Fock s.c.f. calculation      :         -18853.906537592 eV
  | Final zero-broadening corrected energy (caution - metals only) :         -18853.906537592 eV
  | For reference only, the value of 1 Hartree used in FHI-aims is :             27.211384500 eV

  Before relying on these values, please be sure to understand exactly which
  total energy value is referred to by a given number. Different objects may
  all carry the same name 'total energy'. Definitions:

  Total energy of the DFT / Hartree-Fock s.c.f. calculation:
  | Note that this energy does not include ANY quantities calculated after the
  | s.c.f. cycle, in particular not ANY RPA, MP2, etc. many-body perturbation terms.
  | Scalar relativistic effects have been included in the 'scaled ZORA' approximation.

  Final zero-broadening corrected energy:
  | For metallic systems only, a broadening of the occupation numbers at the Fermi
  | level can be extrapolated back to zero broadening by an electron-gas inspired
  | formula. For all systems that are not real metals, this value can be
  | meaningless and should be avoided.

------------------------------------------------------------------------------
  Methods described in the following list of references were used in this FHI-aims run.
  If you publish the results, please make sure to cite these reference if they apply.
  FHI-aims is an academic code, and for our developers (often, Ph.D. students
  and postdocs), scientific credit in the community is essential.
  Thank you for helping us!

  For any use of FHI-aims, please cite:

    Volker Blum, Ralf Gehrke, Felix Hanke, Paula Havu, Ville Havu,
    Xinguo Ren, Karsten Reuter, and Matthias Scheffler
    'Ab initio molecular simulations with numeric atom-centered orbitals'
    Computer Physics Communications 180, 2175-2196 (2009)
    http://dx.doi.org/10.1016/j.cpc.2009.06.022


  The scalable eigensolver library ELPA was used in your run.
  ELPA is essential especially for large systems on hundreds or thousands of CPUs.
  For ELPA, please cite:

    Andreas Marek, Volker Blum, Rainer Johanni, Ville Havu, Bruno Lang,
    Thomas Auckenthaler, Alexander Heinecke, Hans-Joachim Bungartz, and Hermann Lederer,
    'The ELPA Library - Scalable Parallel Eigenvalue Solutions
    for Electronic Structure Theory and Computational Science'
    The Journal of Physics: Condensed Matter 26, 213201 (2014).
    http://dx.doi.org/10.1088/0953-8984/26/21/213201


  The ELSI infrastructure was used in your run to solve the Kohn-Sham electronic structure.
  Please check out http://elsi-interchange.org to learn more.
  If scalability is important for your project, please acknowledge ELSI by citing:

    V. W-z. Yu, F. Corsetti, A. Garcia, W. P. Huhn, M. Jacquelin, W. Jia,
    B. Lange, L. Lin, J. Lu, W. Mi, A. Seifitokaldani, A. Vazquez-Mayagoitia,
    C. Yang, H. Yang, and V. Blum
    'ELSI: A unified software interface for Kohn-Sham electronic structure solvers'
    Computer Physics Communications 222, 267-285 (2018).
    http://dx.doi.org/10.1016/j.cpc.2017.09.007


  For the real-space grid partitioning and parallelization used in this calculation, please cite:

    Ville Havu, Volker Blum, Paula Havu, and Matthias Scheffler,
    'Efficient O(N) integration for all-electron electronic structure calculation'
    'using numerically tabulated basis functions'
    Journal of Computational Physics 228, 8367-8379 (2009).
    http://dx.doi.org/10.1016/j.jcp.2009.08.008

  Of course, there are many other important community references, e.g., those cited in the
  above references. Our list is limited to references that describe implementations in the
  FHI-aims code. The reason is purely practical (length of this list) - please credit others as well.

------------------------------------------------------------
          Leaving FHI-aims.
          Date     :  20210620, Time     :  164426.587

          Computational steps:
          | Number of self-consistency cycles          :           15
          | Number of SCF (re)initializations          :            1

          Detailed time accounting                     :  max(cpu_time)    wall_clock(cpu1)
          | Total time                                 :       38.845 s          45.075 s
          | Preparation time                           :        0.196 s           0.182 s
          | Boundary condition initalization           :        0.001 s           0.004 s
          | Grid partitioning                          :        0.349 s           0.353 s
          | Preloading free-atom quantities on grid    :        0.014 s           0.018 s
          | Free-atom superposition energy             :        0.032 s           0.032 s
          | Total time for integrations                :       23.044 s          23.055 s
          | Total time for solution of K.-S. equations :        1.082 s           1.107 s
          | Total time for density update              :        7.540 s           7.510 s
          | Total time for mixing                      :        0.069 s           0.072 s
          | Total time for Hartree multipole update    :        0.099 s           0.106 s
          | Total time for Hartree multipole sum       :        3.565 s           3.569 s
          | Total time for total energy evaluation     :        0.005 s           0.032 s
          | Total time for scaled ZORA corrections     :        2.237 s           2.250 s

          Partial memory accounting:
          | Residual value for overall tracked memory usage across tasks :     0.000000 MB (should be 0.000000 MB)
          | Peak values for overall tracked memory usage (after allocating zora_vector2):
          |   Minimum:       17.340 MB (on task 49)
          |   Maximum:       20.408 MB (on task  6)
          |   Average:       19.060 MB
          | Largest tracked array allocation (hamiltonian_shell):
          |   Minimum:        4.621 MB (on task  1)
          |   Maximum:        4.621 MB (on task  1)
          |   Average:        4.621 MB
          Note:  These values currently only include a subset of arrays which are explicitly tracked.
          The "true" memory usage will be greater.

          Have a nice day.
------------------------------------------------------------
