  MPI-parallelism will be employed.
------------------------------------------------------------
          Invoking FHI-aims ...
          Version 180607
          Git rev. (modified): 6724847 Fix JSON memory corruption in scf_solver
          Compiled on 2018/06/27 at 16:00:31 on host coe.psc.edu.

          When using FHI-aims, please cite the following reference:

          Volker Blum, Ralf Gehrke, Felix Hanke, Paula Havu,
          Ville Havu, Xinguo Ren, Karsten Reuter, and Matthias Scheffler,
          'Ab Initio Molecular Simulations with Numeric Atom-Centered Orbitals',
          Computer Physics Communications 180, 2175-2196 (2009)

          For any questions about FHI-aims, please visit the aimsclub website
          with its forums and wiki. Contributions to both the forums and the
          wiki are warmly encouraged - they are for you, and everyone is welcome there.

------------------------------------------------------------



  Date     :  20210620, Time     :  170448.225
  Time zero on CPU 1             :   0.311705000000000E+00  s.
  Internal wall clock time zero  :           393440688.225  s.

  FHI-aims created a unique identifier for this run for later identification
  aims_uuid : D4C9B723-1CA1-4259-AB53-CAE5179A97A0

  Using       56 parallel tasks.
  Task        0 on host d021 reporting.
  Task        1 on host d021 reporting.
  Task        2 on host d021 reporting.
  Task        3 on host d021 reporting.
  Task        4 on host d021 reporting.
  Task        5 on host d021 reporting.
  Task        6 on host d021 reporting.
  Task        7 on host d021 reporting.
  Task        8 on host d021 reporting.
  Task        9 on host d021 reporting.
  Task       10 on host d021 reporting.
  Task       11 on host d021 reporting.
  Task       12 on host d021 reporting.
  Task       13 on host d021 reporting.
  Task       14 on host d021 reporting.
  Task       15 on host d021 reporting.
  Task       16 on host d021 reporting.
  Task       17 on host d021 reporting.
  Task       18 on host d021 reporting.
  Task       19 on host d021 reporting.
  Task       20 on host d021 reporting.
  Task       21 on host d021 reporting.
  Task       22 on host d021 reporting.
  Task       23 on host d021 reporting.
  Task       24 on host d021 reporting.
  Task       25 on host d021 reporting.
  Task       26 on host d021 reporting.
  Task       27 on host d021 reporting.
  Task       28 on host d021 reporting.
  Task       29 on host d021 reporting.
  Task       30 on host d021 reporting.
  Task       31 on host d021 reporting.
  Task       32 on host d021 reporting.
  Task       33 on host d021 reporting.
  Task       34 on host d021 reporting.
  Task       35 on host d021 reporting.
  Task       36 on host d021 reporting.
  Task       37 on host d021 reporting.
  Task       38 on host d021 reporting.
  Task       39 on host d021 reporting.
  Task       40 on host d021 reporting.
  Task       41 on host d021 reporting.
  Task       42 on host d021 reporting.
  Task       43 on host d021 reporting.
  Task       44 on host d021 reporting.
  Task       45 on host d021 reporting.
  Task       46 on host d021 reporting.
  Task       47 on host d021 reporting.
  Task       48 on host d021 reporting.
  Task       49 on host d021 reporting.
  Task       50 on host d021 reporting.
  Task       51 on host d021 reporting.
  Task       52 on host d021 reporting.
  Task       53 on host d021 reporting.
  Task       54 on host d021 reporting.
  Task       55 on host d021 reporting.

  Performing system and environment tests:
  *** Environment variable OMP_NUM_THREADS is not set
  *** For performance reasons you might want to set it to 1
  | Stacksize not measured: no C compiler
  | Checking for scalapack...
  | Testing pdtran()...
  | All pdtran() tests passed.

  Obtaining array dimensions for all initial allocations:
  
  -----------------------------------------------------------------------
  Parsing control.in (first pass over file, find array dimensions only).
  The contents of control.in will be repeated verbatim below
  unless switched off by setting 'verbatim_writeout .false.' .
  in the first line of control.in .
  -----------------------------------------------------------------------
  
  #===============================================================================
  # FHI-aims file: ./Runs/es/control.in
  # Created using the Atomic Simulation Environment (ASE)
  # Mon Jan 13 16:04:38 2020
  #===============================================================================
  xc                                 pbe
  relativistic                       zora scalar 1e-12
  occupation_type                    gaussian 0.0001
  load_balancing                     .true.
  KS_method                          scalapack_fast
  mixer                              pulay
  n_max_pulay                        5
  charge_mix_param                   0.4
  sc_accuracy_etot                   1e-6
  sc_accuracy_eev                    1e-4
  sc_accuracy_rho                    1e-6
  sc_iter_limit                      100
  prodbas_threshold                  1e-4
  basis_threshold                    1e-5
  override_illconditioning           .true.
  use_logsbt                         .true.
  spin                               none
  charge                             0
  #===============================================================================
  
  ################################################################################
  #
  #  FHI-aims code project
  # Volker Blum, Fritz Haber Institute Berlin, 2009
  #
  #  Suggested "tight" defaults for H atom (to be pasted into control.in file)
  #
  ################################################################################
    species        H
  #     global species definitions
      nucleus             1
      mass                1.00794
  #
      l_hartree           6
  #
      cut_pot             4.0  2.0  1.0
      basis_dep_cutoff    1e-4
  #
      radial_base         24 7.0
      radial_multiplier   2
      angular_grids       specified
        division   0.1930   50
        division   0.3175  110
        division   0.4293  194
        division   0.5066  302
        division   0.5626  434
  #      division   0.5922  590
  #      division   0.6227  974
  #      division   0.6868 1202
  #      outer_grid  770
        outer_grid  434
  ################################################################################
  #
  #  Definition of "minimal" basis
  #
  ################################################################################
  #     valence basis states
      valence      1  s   1.
  #     ion occupancy
      ion_occ      1  s   0.5
  ################################################################################
  #
  #  Suggested additional basis functions. For production calculations,
  #  uncomment them one after another (the most important basis functions are
  #  listed first).
  #
  #  Basis constructed for dimers: 0.5 A, 0.7 A, 1.0 A, 1.5 A, 2.5 A
  #
  ################################################################################
  #  "First tier" - improvements: -1014.90 meV to -62.69 meV
       hydro 2 s 2.1
       hydro 2 p 3.5
  #  "Second tier" - improvements: -12.89 meV to -1.83 meV
       hydro 1 s 0.85
       hydro 2 p 3.7
       hydro 2 s 1.2
       hydro 3 d 7
  #  "Third tier" - improvements: -0.25 meV to -0.12 meV
  #     hydro 4 f 11.2
  #     hydro 3 p 4.8
  #     hydro 4 d 9
  #     hydro 3 s 3.2
  ################################################################################
  #
  # For methods that use the localized form of the "resolution of identity" for
  # the two-electron Coulomb operator (RI_method LVL), particularly Hartree-Fock and
  # hybrid density functional calculations, the highest accuracy can be obtained by
  # uncommenting the line beginning with "for_aux"  below, thus adding an extra g radial
  # function to the construction of the product basis set for the expansion.
  # See Ref. New J. Phys. 17, 093020 (2015) for more information, particularly Figs. 1 and 6.
  #
  ################################################################################
  #
  # for_aux hydro 5 g 6.0
  ################################################################################
  #
  #  FHI-aims code project
  # Volker Blum, Fritz Haber Institute Berlin, 2009
  #
  #  Suggested "tight" defaults for C atom (to be pasted into control.in file)
  #
  ################################################################################
    species        C
  #     global species definitions
      nucleus             6
      mass                12.0107
  #
      l_hartree           6
  #
      cut_pot             4.0  2.0  1.0
      basis_dep_cutoff    1e-4
  #
      radial_base         34 7.0
      radial_multiplier   2
      angular_grids specified
        division   0.2187   50
        division   0.4416  110
        division   0.6335  194
        division   0.7727  302
        division   0.8772  434
  #      division   0.9334  590
  #      division   0.9924  770
  #      division   1.0230  974
  #      division   1.5020 1202
  #     outer_grid  974
        outer_grid  434
  ################################################################################
  #
  #  Definition of "minimal" basis
  #
  ################################################################################
  #     valence basis states
      valence      2  s   2.
      valence      2  p   2.
  #     ion occupancy
      ion_occ      2  s   1.
      ion_occ      2  p   1.
  ################################################################################
  #
  #  Suggested additional basis functions. For production calculations,
  #  uncomment them one after another (the most important basis functions are
  #  listed first).
  #
  #  Constructed for dimers: 1.0 A, 1.25 A, 1.5 A, 2.0 A, 3.0 A
  #
  ################################################################################
  #  "First tier" - improvements: -1214.57 meV to -155.61 meV
       hydro 2 p 1.7
       hydro 3 d 6
       hydro 2 s 4.9
  #  "Second tier" - improvements: -67.75 meV to -5.23 meV
       hydro 4 f 9.8
       hydro 3 p 5.2
       hydro 3 s 4.3
       hydro 5 g 14.4
       hydro 3 d 6.2
  #  "Third tier" - improvements: -2.43 meV to -0.60 meV
  #     hydro 2 p 5.6
  #     hydro 2 s 1.4
  #     hydro 3 d 4.9
  #     hydro 4 f 11.2
  #  "Fourth tier" - improvements: -0.39 meV to -0.18 meV
  #     hydro 2 p 2.1
  #     hydro 5 g 16.4
  #     hydro 4 d 13.2
  #     hydro 3 s 13.6
  #     hydro 4 f 17.6
  #  Further basis functions - improvements: -0.08 meV and below
  #     hydro 3 s 2
  #     hydro 3 p 6
  #     hydro 4 d 20
  ################################################################################
  #
  # For methods that use the localized form of the "resolution of identity" for
  # the two-electron Coulomb operator (RI_method LVL), particularly Hartree-Fock and
  # hybrid density functional calculations, the highest accuracy can be obtained by
  # uncommenting the line beginning with "for_aux"  below, thus adding an extra g radial
  # function to the construction of the product basis set for the expansion.
  # See Ref. New J. Phys. 17, 093020 (2015) for more information, particularly Figs. 1 and 6.
  #
  ################################################################################
  #
  # for_aux hydro 5 g 6.0
  
  -----------------------------------------------------------------------
  Completed first pass over input file control.in .
  -----------------------------------------------------------------------
  
  
  -----------------------------------------------------------------------
  Parsing geometry.in (first pass over file, find array dimensions only).
  The contents of geometry.in will be repeated verbatim below
  unless switched off by setting 'verbatim_writeout .false.' .
  in the first line of geometry.in .
  -----------------------------------------------------------------------
  
  #=======================================================
  # FHI-aims file: geometry.in
  # Created using the Atomic Simulation Environment (ASE)
  # Sun Jun 20 15:47:01 2021
  #=======================================================
  atom 12.7750000000000004 16.2867640000000016 42.9394319999999965 C
  atom 11.8807500000000008 16.7546460000000010 41.9081499999999991 C
  atom 12.8158799999999999 14.8822109999999999 43.3393510000000006 C
  atom 13.6385900000000007 17.1649080000000005 43.5350559999999973 C
  atom 11.0171600000000005 15.7827760000000001 41.3874039999999965 C
  atom 11.9114100000000001 18.0804949999999991 41.5541789999999978 C
  atom 11.8807500000000008 13.9951129999999999 42.7096909999999994 C
  atom 13.6590299999999996 14.4669799999999995 44.3331930000000014 C
  atom 14.5277300000000000 16.7280240000000013 44.5169860000000028 C
  atom 13.6692499999999999 18.4907569999999986 43.1810850000000030 C
  atom 10.9967199999999998 14.4556030000000000 41.7226560000000006 C
  atom 10.1178000000000008 16.2650989999999993 40.3288939999999982 C
  atom 11.0222700000000007 18.5173789999999983 40.5722489999999993 C
  atom 12.7750000000000004 18.9586390000000016 42.1498040000000032 C
  atom 11.8654200000000003 12.6847519999999996 43.2066119999999998 C
  atom 13.6539199999999994 13.1031220000000008 44.7382180000000034 C
  atom 14.5634999999999994 15.3834560000000007 44.9220109999999977 C
  atom 15.4117599999999992 17.6235050000000015 45.1296290000000013 C
  atom 14.5328400000000002 19.4626270000000012 43.7018309999999985 C
  atom 10.1535700000000002 13.5406499999999994 41.1934010000000015 C
  atom 9.2235499999999995 15.2529160000000008 39.7604979999999983 C
  atom 10.1382399999999997 17.6218980000000016 39.9596069999999983 C
  atom 10.9864999999999995 19.8619470000000007 40.1672239999999974 C
  atom 12.7341200000000008 20.3631910000000005 41.7498840000000015 C
  atom 11.1553860000000000 11.9622430000000008 42.8150309999999976 H
  atom 12.7852200000000007 12.1648599999999991 44.1868399999999966 C
  atom 14.3607350000000000 12.7619720000000001 45.4883650000000017 H
  atom 15.4270899999999997 14.9531259999999993 45.9073440000000019 C
  atom 16.3366700000000016 17.2172850000000004 46.0707149999999999 C
  atom 15.4321999999999999 18.9803040000000003 44.7603409999999968 C
  atom 14.5532800000000009 20.7897999999999996 43.3665799999999990 C
  atom 10.1532119999999999 12.5003709999999995 41.4876390000000015 H
  atom 9.2491000000000003 13.9590350000000001 40.1978560000000016 C
  atom 8.5128000000000004 15.5254720000000006 38.9860159999999993 H
  atom 9.2133299999999991 18.0281179999999992 39.0185200000000023 C
  atom 10.1229099999999992 20.2922769999999986 39.1818910000000002 C
  atom 11.8909699999999994 20.7784230000000001 40.7560420000000008 C
  atom 13.6692499999999999 21.2502889999999987 42.3795440000000028 C
  atom 12.7595170000000007 11.1232550000000003 44.4906080000000017 H
  atom 15.4453840000000007 13.9170770000000008 46.2242159999999984 H
  atom 16.3417800000000000 15.8190760000000008 46.4859510000000000 C
  atom 17.0549830000000000 17.8917080000000013 46.5191360000000032 H
  atom 16.3264500000000012 19.9924870000000006 45.3287369999999967 C
  atom 15.3964300000000005 21.7047519999999992 43.8958349999999982 C
  atom 8.5605279999999997 13.2440529999999992 39.7480750000000000 H
  atom 8.4950170000000007 17.3536940000000008 38.5700989999999990 H
  atom 9.2082200000000007 19.4263259999999995 38.6032840000000022 C
  atom 10.1046160000000000 21.3283249999999995 38.8650189999999967 H
  atom 11.8960799999999995 22.1422810000000005 40.3510169999999988 C
  atom 13.6845800000000004 22.5606499999999990 41.8826230000000024 C
  atom 17.0666849999999997 15.4820519999999995 47.2240150000000014 H
  atom 16.3008999999999986 21.2863669999999985 44.8913790000000006 C
  atom 17.0371999999999986 19.7199300000000015 46.1032200000000003 H
  atom 15.3967880000000008 22.7450319999999984 43.6015960000000007 H
  atom 8.4833149999999993 19.7633499999999991 37.8652200000000008 H
  atom 11.1892650000000007 22.4834309999999995 39.6008700000000005 H
  atom 12.7647800000000000 23.0805429999999987 40.9023949999999985 C
  atom 14.3946140000000007 23.2831599999999987 42.2742039999999974 H
  atom 16.9894730000000003 22.0013490000000012 45.3411600000000021 H
  atom 12.7904830000000000 24.1221479999999993 40.5986270000000005 H
  
  -----------------------------------------------------------------------
  Completed first pass over input file geometry.in .
  -----------------------------------------------------------------------
  

  Basic array size parameters:
  | Number of species                 :        2
  | Number of atoms                   :       60
  | Max. basis fn. angular momentum   :        4
  | Max. atomic/ionic basis occupied n:        2
  | Max. number of basis fn. types    :        2
  | Max. radial fns per species/type  :        8
  | Max. logarithmic grid size        :     1277
  | Max. radial integration grid size :       69
  | Max. angular integration grid size:      434
  | Max. angular grid division number :        8
  | Radial grid for Hartree potential :     1277
  | Number of spin channels           :        1

------------------------------------------------------------
          Reading file control.in.
------------------------------------------------------------
  XC: Using PBE gradient-corrected functionals.
  Scalar relativistic treatment of kinetic energy: ZORA.
  Threshold value for ZORA:   0.100000E-11
  Occupation type: Gaussian broadening, width =   0.100000E-03 eV.
  Since 'load_balancing .true.' is present in control.in, automatically turning on 'use_local_index .true.'.
  Using load balancing for integrations.
  Kohn-Sham electronic structure solved by the ELSI library.
  Using pulay charge density mixing.
  Pulay mixing - number of memorized iterations:    5
  Charge density mixing - mixing parameter:     0.4000
  Convergence accuracy of total energy:  0.1000E-05
  Convergence accuracy of sum of eigenvalues:  0.1000E-03
  Convergence accuracy of self-consistent charge density:  0.1000E-05
  Maximum number of s.-c. iterations  :   100
  * Ignoring prodbas_threshold
  Threshold for basis singularities:  0.1000E-04
  override_illconditioning: Explicitly overriding any built-in checks for an ill-conditioned overlap matrix.
  *** WARNING: If you use this flag, you should really know what you are doing.
  *** DO NOT keep this flag set by default in all your control.in files.
  Using 1D integrations for auxiliary 2-center integrals.
  Spin treatment: No spin polarisation.
  Charge =   0.000000E+00: Neutral system requested explicitly.
 
  Reading configuration options for species H                   .
  | Found nuclear charge :   1.0000
  | Found atomic mass :    1.00794000000000      amu
  | Found l_max for Hartree potential  :   6
  | Found cutoff potl. onset [A], width [A], scale factor :    4.00000    2.00000    1.00000
  | Threshold for basis-dependent cutoff potential is   0.100000E-03
  | Found data for basic radial integration grid :    24 points, outermost radius =    7.000 A
  | Found multiplier for basic radial grid :   2
  | Found angular grid specification: user-specified.
  | Specified grid contains     6 separate shells.
  | Check grid settings after all constraints further below.
  | Found free-atom valence shell :  1 s   1.000
  | No ionic wave fns used. Skipping ion_occ.
  | Found hydrogenic basis function :  2 s   2.100
  | Found hydrogenic basis function :  2 p   3.500
  | Found hydrogenic basis function :  1 s   0.850
  | Found hydrogenic basis function :  2 p   3.700
  | Found hydrogenic basis function :  2 s   1.200
  | Found hydrogenic basis function :  3 d   7.000
  Species H                   : Missing cutoff potential type.
  Defaulting to exp(1/x)/(1-x)^2 type cutoff potential.
  Species H : No 'logarithmic' tag. Using default grid for free atom:
  | Default logarithmic grid data [bohr] : 0.1000E-03 0.1000E+03 0.1012E+01
  Species H : On-site basis accuracy parameter (for Gram-Schmidt orthonormalisation) not specified.
  Using default value basis_acc =  0.1000000E-03.
  Species H                   : Using default innermost maximum threshold i_radial=  2 for radial functions.
  Species H                   : Default cutoff onset for free atom density etc. : 0.40000000E+01 AA.
  Species H                   : Basic radial grid will be enhanced according to radial_multiplier =   2, to contain    49 grid points.
 
  Reading configuration options for species C                   .
  | Found nuclear charge :   6.0000
  | Found atomic mass :    12.0107000000000      amu
  | Found l_max for Hartree potential  :   6
  | Found cutoff potl. onset [A], width [A], scale factor :    4.00000    2.00000    1.00000
  | Threshold for basis-dependent cutoff potential is   0.100000E-03
  | Found data for basic radial integration grid :    34 points, outermost radius =    7.000 A
  | Found multiplier for basic radial grid :   2
  | Found angular grid specification: user-specified.
  | Specified grid contains     6 separate shells.
  | Check grid settings after all constraints further below.
  | Found free-atom valence shell :  2 s   2.000
  | Found free-atom valence shell :  2 p   2.000
  | No ionic wave fns used. Skipping ion_occ.
  | No ionic wave fns used. Skipping ion_occ.
  | Found hydrogenic basis function :  2 p   1.700
  | Found hydrogenic basis function :  3 d   6.000
  | Found hydrogenic basis function :  2 s   4.900
  | Found hydrogenic basis function :  4 f   9.800
  | Found hydrogenic basis function :  3 p   5.200
  | Found hydrogenic basis function :  3 s   4.300
  | Found hydrogenic basis function :  5 g  14.400
  | Found hydrogenic basis function :  3 d   6.200
  Species C                   : Missing cutoff potential type.
  Defaulting to exp(1/x)/(1-x)^2 type cutoff potential.
  Species C : No 'logarithmic' tag. Using default grid for free atom:
  | Default logarithmic grid data [bohr] : 0.1000E-03 0.1000E+03 0.1012E+01
  Species C : On-site basis accuracy parameter (for Gram-Schmidt orthonormalisation) not specified.
  Using default value basis_acc =  0.1000000E-03.
  Species C                   : Using default innermost maximum threshold i_radial=  2 for radial functions.
  Species C                   : Default cutoff onset for free atom density etc. : 0.40000000E+01 AA.
  Species C                   : Basic radial grid will be enhanced according to radial_multiplier =   2, to contain    69 grid points.
 
  Finished reading input file 'control.in'. Consistency checks are next.
 
  MPI_IN_PLACE appears to work with this MPI implementation.
  | Keeping use_mpi_in_place .true. (see manual).
  Target number of points in a grid batch is not set. Defaulting to  100
  Method for grid partitioning is not set. Defaulting to parallel hash+maxmin partitioning.
  Batch size limit is not set. Defaulting to    200
  By default, will store active basis functions for each batch.
  If in need of memory, prune_basis_once .false. can be used to disable this option.
  communication_type for Hartree potential was not specified.
  Defaulting to calc_hartree .
  Pulay mixer: Number of initial linear mixing iterations not set.
  Defaulting to    0 iterations.
  Work space size for distributed Hartree potential not set.
  Defaulting to   0.200000E+03 MB.
  Algorithm-dependent basis array size parameters:
  | n_max_pulay                         :        5
  Presetting      1001 iterations before the initial mixing cycle
  is restarted anyway using the sc_init_iter criterion / keyword.
  Presetting a factor      1.000 between actual scf density residual
  and density convergence criterion sc_accuracy_rho below which sc_init_iter
  takes no effect.
  Calculation of forces was not defined in control.in. No forces will be calculated.
  Geometry relaxation not requested: no relaxation will be performed.
  No accuracy limit for integral partition fn. given. Defaulting to  0.1000E-14.
  No threshold value for u(r) in integrations given. Defaulting to  0.1000E-05.
  No accuracy for occupation numbers given. Defaulting to  0.1000E-12.
  No threshold value for occupation numbers given. Defaulting to  0.0000E+00.
  No accuracy for fermi level given. Defaulting to  0.1000E-19.
  Maximum # of iterations to find E_F not set. Defaulting to  200.
  Will not use alltoall communication since running on < 1024 CPUs.
  partition_type (choice of integration weights) for integrals was not specified.
  | Using a version of the partition function of Stratmann and coworkers ('stratmann_sparse').
  | At each grid point, the set of atoms used to build the partition table is smoothly restricted to
  | only those atoms whose free-atom density would be non-zero at that grid point.
  Partitioning for Hartree potential was not defined. Using partition_type for integrals.
  | Adjusted default value of keyword multip_moments_threshold to:       0.10000000E-11
  | This value may affect high angular momentum components of the Hartree potential in periodic systems.
  No q(lm)/r^(l+1) cutoff set for long-range Hartree potential.
  | Using default value of  0.100000E-09 .
  | Verify using the multipole_threshold keyword.
  Defaulting to new monopole extrapolation.
  Density update method: automatic selection selected.
 * Warning: use_local_index and/or load_balancing needs packed_matrix_format = index
 * Changing the default setting to packed_matrix_format = index
------------------------------------------------------------


------------------------------------------------------------
          Reading geometry description geometry.in.
------------------------------------------------------------
  Input structure read successfully.
  The structure contains       60 atoms,  and a total of        270.000 electrons.

  Input geometry:
  | No unit cell requested.
  | Atomic structure:
  |       Atom                x [A]            y [A]            z [A]
  |    1: Species C            12.77500000       16.28676400       42.93943200
  |    2: Species C            11.88075000       16.75464600       41.90815000
  |    3: Species C            12.81588000       14.88221100       43.33935100
  |    4: Species C            13.63859000       17.16490800       43.53505600
  |    5: Species C            11.01716000       15.78277600       41.38740400
  |    6: Species C            11.91141000       18.08049500       41.55417900
  |    7: Species C            11.88075000       13.99511300       42.70969100
  |    8: Species C            13.65903000       14.46698000       44.33319300
  |    9: Species C            14.52773000       16.72802400       44.51698600
  |   10: Species C            13.66925000       18.49075700       43.18108500
  |   11: Species C            10.99672000       14.45560300       41.72265600
  |   12: Species C            10.11780000       16.26509900       40.32889400
  |   13: Species C            11.02227000       18.51737900       40.57224900
  |   14: Species C            12.77500000       18.95863900       42.14980400
  |   15: Species C            11.86542000       12.68475200       43.20661200
  |   16: Species C            13.65392000       13.10312200       44.73821800
  |   17: Species C            14.56350000       15.38345600       44.92201100
  |   18: Species C            15.41176000       17.62350500       45.12962900
  |   19: Species C            14.53284000       19.46262700       43.70183100
  |   20: Species C            10.15357000       13.54065000       41.19340100
  |   21: Species C             9.22355000       15.25291600       39.76049800
  |   22: Species C            10.13824000       17.62189800       39.95960700
  |   23: Species C            10.98650000       19.86194700       40.16722400
  |   24: Species C            12.73412000       20.36319100       41.74988400
  |   25: Species H            11.15538600       11.96224300       42.81503100
  |   26: Species C            12.78522000       12.16486000       44.18684000
  |   27: Species H            14.36073500       12.76197200       45.48836500
  |   28: Species C            15.42709000       14.95312600       45.90734400
  |   29: Species C            16.33667000       17.21728500       46.07071500
  |   30: Species C            15.43220000       18.98030400       44.76034100
  |   31: Species C            14.55328000       20.78980000       43.36658000
  |   32: Species H            10.15321200       12.50037100       41.48763900
  |   33: Species C             9.24910000       13.95903500       40.19785600
  |   34: Species H             8.51280000       15.52547200       38.98601600
  |   35: Species C             9.21333000       18.02811800       39.01852000
  |   36: Species C            10.12291000       20.29227700       39.18189100
  |   37: Species C            11.89097000       20.77842300       40.75604200
  |   38: Species C            13.66925000       21.25028900       42.37954400
  |   39: Species H            12.75951700       11.12325500       44.49060800
  |   40: Species H            15.44538400       13.91707700       46.22421600
  |   41: Species C            16.34178000       15.81907600       46.48595100
  |   42: Species H            17.05498300       17.89170800       46.51913600
  |   43: Species C            16.32645000       19.99248700       45.32873700
  |   44: Species C            15.39643000       21.70475200       43.89583500
  |   45: Species H             8.56052800       13.24405300       39.74807500
  |   46: Species H             8.49501700       17.35369400       38.57009900
  |   47: Species C             9.20822000       19.42632600       38.60328400
  |   48: Species H            10.10461600       21.32832500       38.86501900
  |   49: Species C            11.89608000       22.14228100       40.35101700
  |   50: Species C            13.68458000       22.56065000       41.88262300
  |   51: Species H            17.06668500       15.48205200       47.22401500
  |   52: Species C            16.30090000       21.28636700       44.89137900
  |   53: Species H            17.03720000       19.71993000       46.10322000
  |   54: Species H            15.39678800       22.74503200       43.60159600
  |   55: Species H             8.48331500       19.76335000       37.86522000
  |   56: Species H            11.18926500       22.48343100       39.60087000
  |   57: Species C            12.76478000       23.08054300       40.90239500
  |   58: Species H            14.39461400       23.28316000       42.27420400
  |   59: Species H            16.98947300       22.00134900       45.34116000
  |   60: Species H            12.79048300       24.12214800       40.59862700
  |

  | The smallest distance between any two atoms is         1.08109043 AA.
  |
  | The first atom of this pair is atom number                     20 .
  | The second atom of this pair is atom number                    32 .

  Number of empty states per atom not set in control.in - providing a guess from actual geometry.
  | Total number of empty states used during s.c.f. cycle:      153
  If you use a very high smearing, use empty_states (per atom!) in control.in to increase this value.

  Structure-dependent array size parameters: 
  | Maximum number of distinct radial functions  :       18
  | Maximum number of basis functions            :     1908
  | Number of Kohn-Sham states (occupied + empty):      288
------------------------------------------------------------

------------------------------------------------------------
          Preparing all fixed parts of the calculation.
------------------------------------------------------------
  Determining machine precision:
    2.225073858507201E-308
  Setting up grids for atomic and cluster calculations.

  Creating wave function, potential, and density for free atoms.

  Species: H

  List of occupied orbitals and eigenvalues:
    n    l              occ      energy [Ha]    energy [eV]
    1    0           1.0000        -0.238386        -6.4868


  Species: C

  List of occupied orbitals and eigenvalues:
    n    l              occ      energy [Ha]    energy [eV]
    1    0           2.0000       -10.049212      -273.4530
    2    0           2.0000        -0.504761       -13.7352
    2    1           2.0000        -0.193631        -5.2690

  Creating fixed part of basis set: Ionic, confined, hydrogenic.
 
  H                    hydrogenic:
 
  List of hydrogenic basis orbitals: 
    n    l      effective z      eigenvalue [eV]  inner max. [A]     outer max. [A]     outer radius [A]   
    2    0         2.100000       -14.9965           0.193243           1.317208           5.373006
    2    1         3.500000       -41.6672           0.602369           0.602369           4.056063
    1    0         0.850000        -9.8292           0.624871           0.624871           5.373006
    2    1         3.700000       -46.5653           0.573622           0.573622           3.910002
    2    0         1.200000        -4.5995           0.334980           2.228188           5.505995
    3    2         7.000000       -74.0753           0.680699           0.680699           3.769201
 
 
  C                    hydrogenic:
 
  List of hydrogenic basis orbitals: 
    n    l      effective z      eigenvalue [eV]  inner max. [A]     outer max. [A]     outer radius [A]   
    2    1         1.700000        -9.8152           1.245706           1.245706           5.401630
    3    2         6.000000       -54.4226           0.792453           0.792453           4.178599
    2    0         4.900000       -81.6681           0.082559           0.562749           3.353238
    4    3         9.800000       -81.6681           0.863254           0.863254           4.028125
    3    1         5.200000       -40.8774           0.305389           1.215618           4.898362
    3    0         4.300000       -27.9508           0.091041           1.610311           5.401630
    5    4        14.400000      -112.8510           0.917666           0.917666           3.883070
    3    2         6.200000       -58.1113           0.763917           0.763917           4.077671
 

  Adding cutoff potential to free-atom effective potential.
  Creating atomic-like basis functions for current effective potential.

  Species H                   :

  List of atomic basis orbitals and eigenvalues:
    n    l      energy [Ha]    energy [eV]    outer radius [A]
    1    0        -0.238386        -6.4868       5.373006


  Species C                   :

  List of atomic basis orbitals and eigenvalues:
    n    l      energy [Ha]    energy [eV]    outer radius [A]
    1    0       -10.049212      -273.4530       1.934409
    2    0        -0.504761       -13.7352       5.271162
    2    1        -0.193631        -5.2690       5.401630

  Assembling full basis from fixed parts.
  | Species H :   atomic orbital   1 s accepted.
  | Species H :    hydro orbital   2 s accepted.
  | Species H :    hydro orbital   1 s accepted.
  | Species H :    hydro orbital   2 s accepted.
  | Species H :    hydro orbital   2 p accepted.
  | Species H :    hydro orbital   2 p accepted.
  | Species H :    hydro orbital   3 d accepted.
  | Species C :   atomic orbital   1 s accepted.
  | Species C :    hydro orbital   2 s accepted.
  | Species C :   atomic orbital   2 s accepted.
  | Species C :    hydro orbital   3 s accepted.
  | Species C :    hydro orbital   3 p accepted.
  | Species C :   atomic orbital   2 p accepted.
  | Species C :    hydro orbital   2 p accepted.
  | Species C :    hydro orbital   3 d accepted.
  | Species C :    hydro orbital   3 d accepted.
  | Species C :    hydro orbital   4 f accepted.
  | Species C :    hydro orbital   5 g accepted.
 
  Basis size parameters after reduction:
  | Total number of radial functions:       18
  | Total number of basis functions :     1908
 
  Per-task memory consumption for arrays in subroutine allocate_ext:
  |           4.457416MB.
  Testing on-site integration grid accuracy.
  |  Species  Function  <phi|h_atom|phi> (log., in eV)  <phi|h_atom|phi> (rad., in eV)
           1        1                 -6.4870767962                 -6.4871688290
           1        2                 13.5032046589                 13.5028982997
           1        3                 32.8195184817                 32.8119941656
           1        4                 33.8513856511                 33.7670005767 ***
           1        5                 28.8544614965                 28.8544615203
           1        6                 59.6326952547                 59.6327656460
           1        7                 60.2719308513                 60.2719305949
           2        8               -273.4529726040               -273.4529710464
           2        9                -10.7721037319                -10.7721022101
           2       10                 17.6044132601                 17.6044162063
           2       11                 53.7706460658                 53.7706913770
           2       12                 15.0973290362                 15.0973256030
           2       13                  3.8545134692                  3.8545724687
           2       14                 12.1156992592                 12.1182024431
           2       15                 29.4352039302                 29.4352041816
           2       16                 54.8741144708                 54.8740268729
           2       17                 59.3556032049                 59.3556031382
           2       18                 93.4551837154                 93.4551838009
 * Note: Onsite integrals marked "***" above are less accurate than
 * onsite_accuracy_threshold =    0.03000 eV. Usually, this is harmless.
 * When in doubt, tighten the "radial" and/or "radial_multiplier" flags to check.

  Preparing densities etc. for the partition functions (integrals / Hartree potential).

  Preparations completed.
  max(cpu_time)          :      0.225 s.
  Wall clock time (cpu1) :      0.272 s.
------------------------------------------------------------

------------------------------------------------------------
          Begin self-consistency loop: Initialization.

          Date     :  20210620, Time     :  170448.703
------------------------------------------------------------

  Initializing index lists of integration centers etc. from given atomic structure:
  | Number of centers in hartree potential         :        60
  | Number of centers in hartree multipole         :        60
  | Number of centers in electron density summation:        60
  | Number of centers in basis integrals           :        60
  | Number of centers in integrals                 :        60
  | Number of centers in hamiltonian               :        60
  * Using 56 tasks for Scalapack Eigenvalue solver.
  Detailed listing of tasks and assigned k-points:
  (for non-periodic systems, the "k-point" denotes an internal label only)
   Task     0 k-point     1 on d021
   Task     1 k-point     1 on d021
   Task     2 k-point     1 on d021
   Task     3 k-point     1 on d021
   Task     4 k-point     1 on d021
   Task     5 k-point     1 on d021
   Task     6 k-point     1 on d021
   Task     7 k-point     1 on d021
   Task     8 k-point     1 on d021
   Task     9 k-point     1 on d021
   Task    10 k-point     1 on d021
   Task    11 k-point     1 on d021
   Task    12 k-point     1 on d021
   Task    13 k-point     1 on d021
   Task    14 k-point     1 on d021
   Task    15 k-point     1 on d021
   Task    16 k-point     1 on d021
   Task    17 k-point     1 on d021
   Task    18 k-point     1 on d021
   Task    19 k-point     1 on d021
   Task    20 k-point     1 on d021
   Task    21 k-point     1 on d021
   Task    22 k-point     1 on d021
   Task    23 k-point     1 on d021
   Task    24 k-point     1 on d021
   Task    25 k-point     1 on d021
   Task    26 k-point     1 on d021
   Task    27 k-point     1 on d021
   Task    28 k-point     1 on d021
   Task    29 k-point     1 on d021
   Task    30 k-point     1 on d021
   Task    31 k-point     1 on d021
   Task    32 k-point     1 on d021
   Task    33 k-point     1 on d021
   Task    34 k-point     1 on d021
   Task    35 k-point     1 on d021
   Task    36 k-point     1 on d021
   Task    37 k-point     1 on d021
   Task    38 k-point     1 on d021
   Task    39 k-point     1 on d021
   Task    40 k-point     1 on d021
   Task    41 k-point     1 on d021
   Task    42 k-point     1 on d021
   Task    43 k-point     1 on d021
   Task    44 k-point     1 on d021
   Task    45 k-point     1 on d021
   Task    46 k-point     1 on d021
   Task    47 k-point     1 on d021
   Task    48 k-point     1 on d021
   Task    49 k-point     1 on d021
   Task    50 k-point     1 on d021
   Task    51 k-point     1 on d021
   Task    52 k-point     1 on d021
   Task    53 k-point     1 on d021
   Task    54 k-point     1 on d021
   Task    55 k-point     1 on d021
  Tasks:    56 split into      8 X      7 BLACS grid
  Calculating block size based on n_basis =         1908 max_nprow =            8 max_npcol =            7
  ScaLAPACK block size set to:           16
  Allocating        0.530 MB for ovlp
  Allocating        0.530 MB for ham
  Allocating        0.530 MB for eigenvec
  Required Scalapack workspace - INTEGER:            1 REAL:             1
  Partitioning the integration grid into batches with parallel hashing+maxmin method.
  | Number of batches:     9285
  | Maximal batch size:     193
  | Minimal batch size:      11
  | Average batch size:     109.787
  | Standard deviation of batch sizes:      36.044

  Integration load balanced across     56 MPI tasks.
  Work distribution over tasks is as follows:
  Task      0 has      18407 integration points.
  Task      1 has      18158 integration points.
  Task      2 has      18118 integration points.
  Task      3 has      18381 integration points.
  Task      4 has      18112 integration points.
  Task      5 has      18192 integration points.
  Task      6 has      18144 integration points.
  Task      7 has      18228 integration points.
  Task      8 has      18326 integration points.
  Task      9 has      18088 integration points.
  Task     10 has      18285 integration points.
  Task     11 has      18162 integration points.
  Task     12 has      18199 integration points.
  Task     13 has      18124 integration points.
  Task     14 has      18251 integration points.
  Task     15 has      18255 integration points.
  Task     16 has      18135 integration points.
  Task     17 has      18283 integration points.
  Task     18 has      18192 integration points.
  Task     19 has      18189 integration points.
  Task     20 has      18177 integration points.
  Task     21 has      18275 integration points.
  Task     22 has      18151 integration points.
  Task     23 has      18148 integration points.
  Task     24 has      18208 integration points.
  Task     25 has      18175 integration points.
  Task     26 has      18175 integration points.
  Task     27 has      18150 integration points.
  Task     28 has      18337 integration points.
  Task     29 has      18239 integration points.
  Task     30 has      18212 integration points.
  Task     31 has      18346 integration points.
  Task     32 has      18132 integration points.
  Task     33 has      18174 integration points.
  Task     34 has      18118 integration points.
  Task     35 has      18283 integration points.
  Task     36 has      18230 integration points.
  Task     37 has      18146 integration points.
  Task     38 has      18232 integration points.
  Task     39 has      18170 integration points.
  Task     40 has      18162 integration points.
  Task     41 has      18122 integration points.
  Task     42 has      18251 integration points.
  Task     43 has      18253 integration points.
  Task     44 has      18198 integration points.
  Task     45 has      18284 integration points.
  Task     46 has      18158 integration points.
  Task     47 has      18217 integration points.
  Task     48 has      18159 integration points.
  Task     49 has      18251 integration points.
  Task     50 has      18408 integration points.
  Task     51 has      18046 integration points.
  Task     52 has      18188 integration points.
  Task     53 has      18159 integration points.
  Task     54 has      18143 integration points.
  Task     55 has      18070 integration points.
  Initializing partition tables, free-atom densities, potentials, etc. across the integration grid (initialize_grid_storage).
  | initialize_grid_storage: Actual outermost partition radius vs. multipole_radius_free
  | (-- VB: in principle, multipole_radius_free should be larger, hence this output)
  | Species        1: Confinement radius =              6.000000000000000 AA, multipole_radius_free =              6.071692442739658 AA.
  | Species        1: outer_partition_radius set to              6.071692442739658 AA .
  | Species        2: Confinement radius =              6.000000000000000 AA, multipole_radius_free =              6.029870734432609 AA.
  | Species        2: outer_partition_radius set to              6.029870734432609 AA .
  | The sparse table of interatomic distances needs     42.7240 kbyte instead of    28.8000 kbyte of memory.
  | Using the partition_type stratmann_smoother will reduce your memory usage.
  | Net number of integration points:  1019376
  | of which are non-zero points    :   812607
  Renormalizing the initial density to the exact electron count on the 3D integration grid.
  | Initial density: Formal number of electrons (from input files) :     270.0000000000
  | Integrated number of electrons on 3D grid     :     270.0005669307
  | Charge integration error                      :       0.0005669307
  | Normalization factor for density and gradient :       0.9999979003
  Obtaining max. number of non-zero basis functions in each batch (get_n_compute_maxes).
  | Maximal number of non-zero basis functions:     1129
  Selecting the method for density update.
  Loop over occupied states selected for charge density update.
  Hamiltonian matrix size:
  | Size of matrix non-packed:               1821186
  | Size of matrix packed:         1551720
  Allocating        4.396 MB for KS_eigenvector
  use_local_index: Max. local matrix size =      1222446
  Task:     0 matrix size:     190585
  Task:     1 matrix size:     334904
  Task:     2 matrix size:     444904
  Task:     3 matrix size:     261644
  Task:     4 matrix size:     450537
  Task:     5 matrix size:     620664
  Task:     6 matrix size:     836315
  Task:     7 matrix size:     331930
  Task:     8 matrix size:     386769
  Task:     9 matrix size:     359799
  Task:    10 matrix size:     737618
  Task:    11 matrix size:    1006811
  Task:    12 matrix size:     998317
  Task:    13 matrix size:    1033592
  Task:    14 matrix size:     575742
  Task:    15 matrix size:    1200537
  Task:    16 matrix size:    1154568
  Task:    17 matrix size:     353197
  Task:    18 matrix size:     539609
  Task:    19 matrix size:    1007555
  Task:    20 matrix size:     755790
  Task:    21 matrix size:     400840
  Task:    22 matrix size:     342004
  Task:    23 matrix size:     235995
  Task:    24 matrix size:     729256
  Task:    25 matrix size:     573480
  Task:    26 matrix size:     358622
  Task:    27 matrix size:     237859
  Task:    28 matrix size:     309517
  Task:    29 matrix size:     457128
  Task:    30 matrix size:     708977
  Task:    31 matrix size:     338205
  Task:    32 matrix size:     239477
  Task:    33 matrix size:     484403
  Task:    34 matrix size:     256135
  Task:    35 matrix size:     921015
  Task:    36 matrix size:     625256
  Task:    37 matrix size:     347883
  Task:    38 matrix size:    1095031
  Task:    39 matrix size:    1222446
  Task:    40 matrix size:     698825
  Task:    41 matrix size:     720086
  Task:    42 matrix size:    1144891
  Task:    43 matrix size:    1043098
  Task:    44 matrix size:     820529
  Task:    45 matrix size:     429718
  Task:    46 matrix size:     434528
  Task:    47 matrix size:     434498
  Task:    48 matrix size:     345534
  Task:    49 matrix size:     776535
  Task:    50 matrix size:     513733
  Task:    51 matrix size:     315107
  Task:    52 matrix size:     581795
  Task:    53 matrix size:     405571
  Task:    54 matrix size:     290118
  Task:    55 matrix size:     203952
  Integrating Hamiltonian matrix: batch-based integration.
  Time summed over all CPUs for integration: real work      231.559 s, elapsed      434.047 s
  Time get_set_sparse_local_matrix_scalapack:     0.021412 s
  Start compute_balanced_batch_distribution
  Done load balancing, time needed:      0.010 s
  Integrating overlap matrix with loadbalancing
  Time summed over all CPUs for integration: real work       66.704 s, elapsed       78.723 s
  Time get_set_full_local_matrix_scalapack:     0.026601 s

  Updating Kohn-Sham eigenvalues and eigenvectors using ELSI and the ELPA eigensolver.
  Overlap matrix is not singular
  | Lowest and highest eigenvalues :  0.12E+02,  0.71E-04
  Finished singularity check of overlap matrix
  | Time :     0.145 s
  Finished Cholesky decomposition
  | Time :     0.029 s
  Finished transformation to standard eigenproblem
  | Time :     0.027 s
  Starting ELPA eigensolver
  Finished solving standard eigenproblem
  | Time :     0.148 s
  Finished back-transformation of eigenvectors
  | Time :     0.008 s

  Obtaining occupation numbers and chemical potential using ELSI.
  | Chemical potential (Fermi level):    -7.55960372 eV
  Writing Kohn-Sham eigenvalues.

  State    Occupation    Eigenvalue [Ha]    Eigenvalue [eV]
      1       2.00000         -10.186680         -277.19366
      2       2.00000         -10.186679         -277.19365
      3       2.00000         -10.184930         -277.14603
      4       2.00000         -10.184929         -277.14603
      5       2.00000         -10.176499         -276.91663
      6       2.00000         -10.176499         -276.91663
      7       2.00000         -10.176446         -276.91518
      8       2.00000         -10.176446         -276.91518
      9       2.00000         -10.175663         -276.89387
     10       2.00000         -10.175662         -276.89386
     11       2.00000         -10.175214         -276.88166
     12       2.00000         -10.175214         -276.88166
     13       2.00000         -10.174479         -276.86165
     14       2.00000         -10.174479         -276.86165
     15       2.00000         -10.174107         -276.85154
     16       2.00000         -10.174107         -276.85154
     17       2.00000         -10.173556         -276.83654
     18       2.00000         -10.173555         -276.83653
     19       2.00000         -10.171983         -276.79373
     20       2.00000         -10.171983         -276.79373
     21       2.00000         -10.170770         -276.76074
     22       2.00000         -10.170770         -276.76074
     23       2.00000         -10.169494         -276.72601
     24       2.00000         -10.169494         -276.72601
     25       2.00000         -10.167359         -276.66791
     26       2.00000         -10.167359         -276.66790
     27       2.00000         -10.166973         -276.65740
     28       2.00000         -10.166972         -276.65740
     29       2.00000         -10.166642         -276.64841
     30       2.00000         -10.166642         -276.64841
     31       2.00000         -10.165451         -276.61600
     32       2.00000         -10.165451         -276.61600
     33       2.00000         -10.164593         -276.59265
     34       2.00000         -10.164593         -276.59265
     35       2.00000         -10.163539         -276.56397
     36       2.00000         -10.163539         -276.56396
     37       2.00000         -10.163254         -276.55622
     38       2.00000         -10.163254         -276.55621
     39       2.00000         -10.162357         -276.53180
     40       2.00000         -10.162357         -276.53180
     41       2.00000         -10.156371         -276.36893
     42       2.00000         -10.156371         -276.36892
     43       2.00000          -1.050093          -28.57450
     44       2.00000          -1.027843          -27.96904
     45       2.00000          -1.024436          -27.87632
     46       2.00000          -1.005423          -27.35895
     47       2.00000          -0.993179          -27.02578
     48       2.00000          -0.989268          -26.91934
     49       2.00000          -0.973938          -26.50219
     50       2.00000          -0.955599          -26.00317
     51       2.00000          -0.947768          -25.79008
     52       2.00000          -0.940252          -25.58556
     53       2.00000          -0.929876          -25.30322
     54       2.00000          -0.924555          -25.15843
     55       2.00000          -0.898597          -24.45207
     56       2.00000          -0.895038          -24.35523
     57       2.00000          -0.890718          -24.23768
     58       2.00000          -0.887068          -24.13834
     59       2.00000          -0.880009          -23.94627
     60       2.00000          -0.872920          -23.75337
     61       2.00000          -0.849107          -23.10538
     62       2.00000          -0.844469          -22.97918
     63       2.00000          -0.838827          -22.82565
     64       2.00000          -0.805024          -21.90581
     65       2.00000          -0.803984          -21.87752
     66       2.00000          -0.796175          -21.66501
     67       2.00000          -0.792117          -21.55460
     68       2.00000          -0.775611          -21.10545
     69       2.00000          -0.769999          -20.95275
     70       2.00000          -0.767645          -20.88869
     71       2.00000          -0.757053          -20.60047
     72       2.00000          -0.736777          -20.04871
     73       2.00000          -0.729668          -19.85528
     74       2.00000          -0.728308          -19.81827
     75       2.00000          -0.713745          -19.42198
     76       2.00000          -0.698280          -19.00118
     77       2.00000          -0.690523          -18.79009
     78       2.00000          -0.689330          -18.75762
     79       2.00000          -0.686455          -18.67939
     80       2.00000          -0.664549          -18.08331
     81       2.00000          -0.663382          -18.05155
     82       2.00000          -0.657790          -17.89938
     83       2.00000          -0.648331          -17.64199
     84       2.00000          -0.644623          -17.54109
     85       2.00000          -0.639618          -17.40490
     86       2.00000          -0.625014          -17.00750
     87       2.00000          -0.621086          -16.90062
     88       2.00000          -0.618507          -16.83042
     89       2.00000          -0.615570          -16.75052
     90       2.00000          -0.605770          -16.48384
     91       2.00000          -0.603251          -16.41530
     92       2.00000          -0.602814          -16.40340
     93       2.00000          -0.598443          -16.28447
     94       2.00000          -0.588788          -16.02173
     95       2.00000          -0.585113          -15.92174
     96       2.00000          -0.580300          -15.79078
     97       2.00000          -0.579980          -15.78206
     98       2.00000          -0.576605          -15.69023
     99       2.00000          -0.574942          -15.64498
    100       2.00000          -0.572613          -15.58159
    101       2.00000          -0.568113          -15.45913
    102       2.00000          -0.561117          -15.26878
    103       2.00000          -0.548036          -14.91281
    104       2.00000          -0.542770          -14.76952
    105       2.00000          -0.540526          -14.70846
    106       2.00000          -0.540065          -14.69591
    107       2.00000          -0.532111          -14.47947
    108       2.00000          -0.531450          -14.46148
    109       2.00000          -0.526853          -14.33639
    110       2.00000          -0.526282          -14.32087
    111       2.00000          -0.516916          -14.06600
    112       2.00000          -0.514921          -14.01171
    113       2.00000          -0.504467          -13.72725
    114       2.00000          -0.501662          -13.65093
    115       2.00000          -0.499880          -13.60244
    116       2.00000          -0.498981          -13.57795
    117       2.00000          -0.495999          -13.49683
    118       2.00000          -0.491624          -13.37776
    119       2.00000          -0.486048          -13.22604
    120       2.00000          -0.480266          -13.06870
    121       2.00000          -0.475049          -12.92675
    122       2.00000          -0.462715          -12.59113
    123       2.00000          -0.457343          -12.44495
    124       2.00000          -0.448113          -12.19377
    125       2.00000          -0.436962          -11.89033
    126       2.00000          -0.432880          -11.77927
    127       2.00000          -0.403239          -10.97269
    128       2.00000          -0.401898          -10.93620
    129       2.00000          -0.401175          -10.91654
    130       2.00000          -0.398045          -10.83136
    131       2.00000          -0.394925          -10.74647
    132       2.00000          -0.393072          -10.69602
    133       2.00000          -0.359357           -9.77859
    134       2.00000          -0.355476           -9.67298
    135       2.00000          -0.345403           -9.39889
    136       0.00000          -0.263863           -7.18007
    137       0.00000          -0.259119           -7.05100
    138       0.00000          -0.257361           -7.00314
    139       0.00000          -0.228707           -6.22344
    140       0.00000          -0.224957           -6.12138
    141       0.00000          -0.218798           -5.95380
    142       0.00000          -0.215602           -5.86683
    143       0.00000          -0.209172           -5.69185
    144       0.00000          -0.202518           -5.51081
    145       0.00000          -0.173388           -4.71812
    146       0.00000          -0.172447           -4.69251
    147       0.00000          -0.148468           -4.04002
    148       0.00000          -0.141461           -3.84934
    149       0.00000          -0.131526           -3.57901
    150       0.00000          -0.108758           -2.95945
    151       0.00000          -0.077421           -2.10674
    152       0.00000          -0.075091           -2.04334
    153       0.00000          -0.070520           -1.91894
    154       0.00000          -0.068629           -1.86748
    155       0.00000          -0.062649           -1.70477
    156       0.00000          -0.061556           -1.67503
    157       0.00000          -0.059691           -1.62428
    158       0.00000          -0.056785           -1.54520
    159       0.00000          -0.048907           -1.33084
    160       0.00000          -0.045069           -1.22639
    161       0.00000          -0.032824           -0.89319
    162       0.00000          -0.028594           -0.77808
    163       0.00000          -0.027361           -0.74454
    164       0.00000          -0.025076           -0.68236
    165       0.00000          -0.021839           -0.59427
    166       0.00000          -0.019584           -0.53291
    167       0.00000          -0.014026           -0.38166
    168       0.00000          -0.008942           -0.24333
    169       0.00000          -0.007633           -0.20771
    170       0.00000          -0.007451           -0.20274
    171       0.00000          -0.004856           -0.13215
    172       0.00000          -0.002842           -0.07734
    173       0.00000          -0.001758           -0.04783
    174       0.00000          -0.000388           -0.01057
    175       0.00000           0.002986            0.08125
    176       0.00000           0.007246            0.19718
    177       0.00000           0.009565            0.26028
    178       0.00000           0.010212            0.27788
    179       0.00000           0.016668            0.45355
    180       0.00000           0.018747            0.51014
    181       0.00000           0.020280            0.55184
    182       0.00000           0.023013            0.62621
    183       0.00000           0.023065            0.62764
    184       0.00000           0.023947            0.65162
    185       0.00000           0.030614            0.83305
    186       0.00000           0.031631            0.86072
    187       0.00000           0.035923            0.97751
    188       0.00000           0.037159            1.01116
    189       0.00000           0.044282            1.20498
    190       0.00000           0.048339            1.31537
    191       0.00000           0.050137            1.36430
    192       0.00000           0.051330            1.39675
    193       0.00000           0.052955            1.44099
    194       0.00000           0.054035            1.47036
    195       0.00000           0.055629            1.51375
    196       0.00000           0.058375            1.58848
    197       0.00000           0.059140            1.60929
    198       0.00000           0.059692            1.62431
    199       0.00000           0.059692            1.62432
    200       0.00000           0.064129            1.74504
    201       0.00000           0.064369            1.75158
    202       0.00000           0.068117            1.85355
    203       0.00000           0.068260            1.85745
    204       0.00000           0.071272            1.93942
    205       0.00000           0.071545            1.94683
    206       0.00000           0.077115            2.09841
    207       0.00000           0.078508            2.13632
    208       0.00000           0.082194            2.23662
    209       0.00000           0.086276            2.34769
    210       0.00000           0.087353            2.37700
    211       0.00000           0.089546            2.43666
    212       0.00000           0.097534            2.65404
    213       0.00000           0.098447            2.67888
    214       0.00000           0.100982            2.74787
    215       0.00000           0.102877            2.79944
    216       0.00000           0.107551            2.92660
    217       0.00000           0.107921            2.93667
    218       0.00000           0.110331            3.00225
    219       0.00000           0.113519            3.08900
    220       0.00000           0.117936            3.20919
    221       0.00000           0.119095            3.24073
    222       0.00000           0.119298            3.24626
    223       0.00000           0.122785            3.34115
    224       0.00000           0.124887            3.39834
    225       0.00000           0.125233            3.40775
    226       0.00000           0.127025            3.45653
    227       0.00000           0.131820            3.58700
    228       0.00000           0.134428            3.65798
    229       0.00000           0.135334            3.68262
    230       0.00000           0.142213            3.86981
    231       0.00000           0.146651            3.99058
    232       0.00000           0.146985            3.99967
    233       0.00000           0.148272            4.03468
    234       0.00000           0.152381            4.14650
    235       0.00000           0.152877            4.16001
    236       0.00000           0.156092            4.24747
    237       0.00000           0.158002            4.29945
    238       0.00000           0.162528            4.42261
    239       0.00000           0.163647            4.45307
    240       0.00000           0.165233            4.49622
    241       0.00000           0.165591            4.50595
    242       0.00000           0.171371            4.66325
    243       0.00000           0.174651            4.75249
    244       0.00000           0.177927            4.84164
    245       0.00000           0.179513            4.88481
    246       0.00000           0.181197            4.93063
    247       0.00000           0.183245            4.98634
    248       0.00000           0.183555            4.99479
    249       0.00000           0.189360            5.15276
    250       0.00000           0.193051            5.25319
    251       0.00000           0.193192            5.25701
    252       0.00000           0.195624            5.32319
    253       0.00000           0.195975            5.33276
    254       0.00000           0.196934            5.35884
    255       0.00000           0.200554            5.45736
    256       0.00000           0.202865            5.52023
    257       0.00000           0.204821            5.57347
    258       0.00000           0.206667            5.62371
    259       0.00000           0.207592            5.64888
    260       0.00000           0.208925            5.68514
    261       0.00000           0.210319            5.72306
    262       0.00000           0.217509            5.91871
    263       0.00000           0.220791            6.00803
    264       0.00000           0.226366            6.15973
    265       0.00000           0.226690            6.16855
    266       0.00000           0.229090            6.23386
    267       0.00000           0.233381            6.35062
    268       0.00000           0.234679            6.38593
    269       0.00000           0.235997            6.42181
    270       0.00000           0.242099            6.58784
    271       0.00000           0.243337            6.62154
    272       0.00000           0.245531            6.68124
    273       0.00000           0.246844            6.71697
    274       0.00000           0.250642            6.82032
    275       0.00000           0.251719            6.84963
    276       0.00000           0.254564            6.92705
    277       0.00000           0.259333            7.05680
    278       0.00000           0.260662            7.09298
    279       0.00000           0.262077            7.13147
    280       0.00000           0.267308            7.27381
    281       0.00000           0.267815            7.28762
    282       0.00000           0.270687            7.36575
    283       0.00000           0.272995            7.42856
    284       0.00000           0.274739            7.47602
    285       0.00000           0.283352            7.71039
    286       0.00000           0.285402            7.76619
    287       0.00000           0.289556            7.87922
    288       0.00000           0.295430            8.03906

  Highest occupied state (VBM) at     -9.39888806 eV
  | Occupation number:      2.00000000

  Lowest unoccupied state (CBM) at    -7.18007345 eV
  | Occupation number:      0.00000000

  Overall HOMO-LUMO gap:      2.21881461 eV.
  Calculating total energy contributions from superposition of free atom densities.

  Total energy components:
  | Sum of eigenvalues            :        -976.34644814 Ha      -26567.73860565 eV
  | XC energy correction          :        -229.78272882 Ha       -6252.70618532 eV
  | XC potential correction       :         295.17696785 Ha        8032.17396773 eV
  | Free-atom electrostatic energy:        -701.61439444 Ha      -19091.89905789 eV
  | Hartree energy correction     :           0.00000000 Ha           0.00000000 eV
  | Entropy correction            :           0.00000000 Ha           0.00000000 eV
  | ---------------------------
  | Total energy                  :       -1612.56660355 Ha      -43880.16988114 eV
  | Total energy, T -> 0          :       -1612.56660355 Ha      -43880.16988114 eV  <-- do not rely on this value for anything but (periodic) metals
  | Electronic free energy        :       -1612.56660355 Ha      -43880.16988114 eV

  Derived energy quantities:
  | Kinetic energy                :        1600.47142450 Ha       43551.04331330 eV
  | Electrostatic energy          :       -2983.25529923 Ha      -81178.50700911 eV
  | Energy correction for multipole
  | error in Hartree potential    :           0.00000000 Ha           0.00000000 eV
  | Sum of eigenvalues per atom                           :        -442.79564343 eV
  | Total energy (T->0) per atom                          :        -731.33616469 eV  <-- do not rely on this value for anything but (periodic) metals
  | Electronic free energy per atom                       :        -731.33616469 eV
  Initialize hartree_potential_storage
  Max. number of atoms included in rho_multipole:           60

  End scf initialization - timings             :  max(cpu_time)    wall_clock(cpu1)
  | Time for scf. initialization               :       11.973 s          12.103 s
  | Boundary condition initialization          :        0.001 s           0.004 s
  | Integration                                :        9.244 s           9.279 s
  | Solution of K.-S. eqns.                    :        0.375 s           0.430 s
  | Grid partitioning                          :        1.099 s           1.105 s
  | Preloading free-atom quantities on grid    :        0.024 s           0.028 s
  | Free-atom superposition energy             :        0.092 s           0.092 s
  | Total energy evaluation                    :        0.001 s           0.004 s

  Partial memory accounting:
  | Current value for overall tracked memory usage on task 0  :           6.749 MB
  | Peak value for overall tracked memory usage on task 0     :          34.186 MB after allocating zora_vector2
  | Largest tracked array allocation on task 0 so far         :          10.197 MB  when allocating hamiltonian_shell
  Note:  These values currently only include a subset of arrays which are explicitly tracked.
  The "true" memory usage will be greater.
------------------------------------------------------------

------------------------------------------------------------
          Begin self-consistency iteration #    1

  Date     :  20210620, Time     :  170500.808
------------------------------------------------------------
  Evaluating new KS density.
  Integration grid: deviation in total charge (<rho> - N_e) =   1.136868E-13
  Pulay mixing of updated and previous charge densities.

  Evaluating partitioned Hartree potential by multipole expansion.
  | Analytical far-field extrapolation by fixed multipoles:
  | Hartree multipole sum: apparent total charge =   0.556113E-03
  Summing up the Hartree potential with load balancing.
  Time summed over all CPUs for potential: real work       38.201 s, elapsed       62.560 s
  | RMS charge density error from multipole expansion :   0.167110E-01

  Start compute_balanced_batch_distribution
  Done load balancing, time needed:      0.008 s
  Integrating Hamiltonian matrix: batch-based integration with load balancing
  Time summed over all CPUs for integration: real work      254.109 s, elapsed      290.134 s
  Time get_set_full_local_matrix_scalapack:     0.027042 s
  Start compute_balanced_batch_distribution
  Done load balancing, time needed:      0.009 s

  Updating Kohn-Sham eigenvalues and eigenvectors using ELSI and the ELPA eigensolver.
  Finished transformation to standard eigenproblem
  | Time :     0.030 s
  Starting ELPA eigensolver
  Finished solving standard eigenproblem
  | Time :     0.148 s
  Finished back-transformation of eigenvectors
  | Time :     0.007 s

  Obtaining occupation numbers and chemical potential using ELSI.
  | Chemical potential (Fermi level):    -5.29051890 eV
  Writing Kohn-Sham eigenvalues.

  State    Occupation    Eigenvalue [Ha]    Eigenvalue [eV]
      1       2.00000          -9.992926         -271.92134
      2       2.00000          -9.992926         -271.92134
      3       2.00000          -9.983806         -271.67320
      4       2.00000          -9.983806         -271.67317
      5       2.00000          -9.981077         -271.59893
      6       2.00000          -9.981076         -271.59890
      7       2.00000          -9.978306         -271.52352
      8       2.00000          -9.978306         -271.52351
      9       2.00000          -9.977977         -271.51456
     10       2.00000          -9.977977         -271.51456
     11       2.00000          -9.974020         -271.40689
     12       2.00000          -9.974020         -271.40689
     13       2.00000          -9.973576         -271.39482
     14       2.00000          -9.973576         -271.39482
     15       2.00000          -9.972370         -271.36199
     16       2.00000          -9.972370         -271.36199
     17       2.00000          -9.970506         -271.31126
     18       2.00000          -9.970506         -271.31126
     19       2.00000          -9.969619         -271.28715
     20       2.00000          -9.969619         -271.28715
     21       2.00000          -9.968999         -271.27026
     22       2.00000          -9.968999         -271.27026
     23       2.00000          -9.965133         -271.16507
     24       2.00000          -9.965133         -271.16507
     25       2.00000          -9.964515         -271.14824
     26       2.00000          -9.964515         -271.14824
     27       2.00000          -9.963701         -271.12611
     28       2.00000          -9.963701         -271.12611
     29       2.00000          -9.961300         -271.06077
     30       2.00000          -9.961300         -271.06077
     31       2.00000          -9.960289         -271.03324
     32       2.00000          -9.960288         -271.03324
     33       2.00000          -9.958104         -270.97381
     34       2.00000          -9.958104         -270.97381
     35       2.00000          -9.956092         -270.91906
     36       2.00000          -9.956092         -270.91906
     37       2.00000          -9.950379         -270.76358
     38       2.00000          -9.950379         -270.76358
     39       2.00000          -9.949527         -270.74041
     40       2.00000          -9.949527         -270.74040
     41       2.00000          -9.946780         -270.66566
     42       2.00000          -9.946780         -270.66566
     43       2.00000          -0.904704          -24.61824
     44       2.00000          -0.880949          -23.97184
     45       2.00000          -0.876788          -23.85862
     46       2.00000          -0.852600          -23.20041
     47       2.00000          -0.846162          -23.02524
     48       2.00000          -0.843941          -22.96480
     49       2.00000          -0.822504          -22.38148
     50       2.00000          -0.807549          -21.97453
     51       2.00000          -0.803755          -21.87129
     52       2.00000          -0.796577          -21.67597
     53       2.00000          -0.782350          -21.28884
     54       2.00000          -0.778088          -21.17284
     55       2.00000          -0.754618          -20.53420
     56       2.00000          -0.749302          -20.38956
     57       2.00000          -0.744774          -20.26633
     58       2.00000          -0.742447          -20.20301
     59       2.00000          -0.735079          -20.00253
     60       2.00000          -0.728334          -19.81897
     61       2.00000          -0.702485          -19.11558
     62       2.00000          -0.696777          -18.96026
     63       2.00000          -0.695468          -18.92463
     64       2.00000          -0.665438          -18.10748
     65       2.00000          -0.660879          -17.98342
     66       2.00000          -0.651301          -17.72281
     67       2.00000          -0.647779          -17.62696
     68       2.00000          -0.635589          -17.29526
     69       2.00000          -0.632428          -17.20923
     70       2.00000          -0.621082          -16.90050
     71       2.00000          -0.613265          -16.68778
     72       2.00000          -0.595909          -16.21550
     73       2.00000          -0.589844          -16.05047
     74       2.00000          -0.588536          -16.01489
     75       2.00000          -0.573276          -15.59963
     76       2.00000          -0.555127          -15.10577
     77       2.00000          -0.551700          -15.01252
     78       2.00000          -0.546708          -14.87669
     79       2.00000          -0.540598          -14.71042
     80       2.00000          -0.530202          -14.42754
     81       2.00000          -0.529051          -14.39622
     82       2.00000          -0.525558          -14.30116
     83       2.00000          -0.505972          -13.76821
     84       2.00000          -0.504615          -13.73126
     85       2.00000          -0.502598          -13.67640
     86       2.00000          -0.486145          -13.22867
     87       2.00000          -0.483757          -13.16370
     88       2.00000          -0.483494          -13.15654
     89       2.00000          -0.477301          -12.98802
     90       2.00000          -0.471373          -12.82672
     91       2.00000          -0.465408          -12.66441
     92       2.00000          -0.454458          -12.36642
     93       2.00000          -0.453248          -12.33350
     94       2.00000          -0.451394          -12.28306
     95       2.00000          -0.448828          -12.21324
     96       2.00000          -0.447611          -12.18012
     97       2.00000          -0.441267          -12.00749
     98       2.00000          -0.439727          -11.96557
     99       2.00000          -0.438828          -11.94111
    100       2.00000          -0.432381          -11.76570
    101       2.00000          -0.427551          -11.63425
    102       2.00000          -0.423511          -11.52431
    103       2.00000          -0.421655          -11.47383
    104       2.00000          -0.418117          -11.37754
    105       2.00000          -0.415902          -11.31727
    106       2.00000          -0.401073          -10.91376
    107       2.00000          -0.398116          -10.83328
    108       2.00000          -0.395939          -10.77406
    109       2.00000          -0.394058          -10.72287
    110       2.00000          -0.392161          -10.67125
    111       2.00000          -0.388966          -10.58431
    112       2.00000          -0.384939          -10.47472
    113       2.00000          -0.381379          -10.37785
    114       2.00000          -0.379121          -10.31642
    115       2.00000          -0.367998          -10.01374
    116       2.00000          -0.362302           -9.85874
    117       2.00000          -0.360862           -9.81955
    118       2.00000          -0.357348           -9.72392
    119       2.00000          -0.352447           -9.59056
    120       2.00000          -0.340642           -9.26934
    121       2.00000          -0.338862           -9.22091
    122       2.00000          -0.336420           -9.15444
    123       2.00000          -0.329129           -8.95605
    124       2.00000          -0.327477           -8.91112
    125       2.00000          -0.314953           -8.57031
    126       2.00000          -0.311494           -8.47618
    127       2.00000          -0.283214           -7.70666
    128       2.00000          -0.278721           -7.58440
    129       2.00000          -0.277605           -7.55402
    130       2.00000          -0.276102           -7.51313
    131       2.00000          -0.272886           -7.42561
[...]
    118       2.00000          -0.297427           -8.09341
    119       2.00000          -0.295793           -8.04895
    120       2.00000          -0.293676           -7.99133
    121       2.00000          -0.288372           -7.84700
    122       2.00000          -0.286846           -7.80549
    123       2.00000          -0.273989           -7.45563
    124       2.00000          -0.272259           -7.40855
    125       2.00000          -0.268677           -7.31108
    126       2.00000          -0.262048           -7.13070
    127       2.00000          -0.239812           -6.52562
    128       2.00000          -0.236514           -6.43588
    129       2.00000          -0.234242           -6.37405
    130       2.00000          -0.233948           -6.36605
    131       2.00000          -0.229444           -6.24350
    132       2.00000          -0.227460           -6.18949
    133       2.00000          -0.190625           -5.18717
    134       2.00000          -0.186798           -5.08302
    135       2.00000          -0.179416           -4.88215
    136       0.00000          -0.096423           -2.62379
    137       0.00000          -0.096235           -2.61868
    138       0.00000          -0.091957           -2.50228
    139       0.00000          -0.066488           -1.80923
    140       0.00000          -0.061871           -1.68358
    141       0.00000          -0.055814           -1.51879
    142       0.00000          -0.046239           -1.25824
    143       0.00000          -0.041198           -1.12107
    144       0.00000          -0.035258           -0.95943
    145       0.00000          -0.010750           -0.29253
    146       0.00000          -0.009865           -0.26843
    147       0.00000          -0.007062           -0.19218
    148       0.00000          -0.003959           -0.10774
    149       0.00000          -0.003368           -0.09165
    150       0.00000           0.004699            0.12786
    151       0.00000           0.005211            0.14180
    152       0.00000           0.017765            0.48342
    153       0.00000           0.018586            0.50576
    154       0.00000           0.020071            0.54617
    155       0.00000           0.029556            0.80426
    156       0.00000           0.034705            0.94436
    157       0.00000           0.035294            0.96039
    158       0.00000           0.039901            1.08576
    159       0.00000           0.053083            1.44447
    160       0.00000           0.053338            1.45139
    161       0.00000           0.055223            1.50269
    162       0.00000           0.060920            1.65771
    163       0.00000           0.070949            1.93062
    164       0.00000           0.073664            2.00449
    165       0.00000           0.074288            2.02149
    166       0.00000           0.086896            2.36456
    167       0.00000           0.091785            2.49760
    168       0.00000           0.093406            2.54170
    169       0.00000           0.099608            2.71048
    170       0.00000           0.099693            2.71279
    171       0.00000           0.100359            2.73091
    172       0.00000           0.102670            2.79379
    173       0.00000           0.104771            2.85098
    174       0.00000           0.106054            2.88588
    175       0.00000           0.106955            2.91039
    176       0.00000           0.113843            3.09783
    177       0.00000           0.119720            3.25773
    178       0.00000           0.126256            3.43561
    179       0.00000           0.129744            3.53051
    180       0.00000           0.131303            3.57292
    181       0.00000           0.132203            3.59742
    182       0.00000           0.133410            3.63028
    183       0.00000           0.133606            3.63560
    184       0.00000           0.136169            3.70535
    185       0.00000           0.137641            3.74539
    186       0.00000           0.139902            3.80692
    187       0.00000           0.156043            4.24615
    188       0.00000           0.156355            4.25464
    189       0.00000           0.157742            4.29238
    190       0.00000           0.158124            4.30278
    191       0.00000           0.161515            4.39504
    192       0.00000           0.162237            4.41469
    193       0.00000           0.167451            4.55656
    194       0.00000           0.169285            4.60648
    195       0.00000           0.170289            4.63380
    196       0.00000           0.171943            4.67881
    197       0.00000           0.172519            4.69448
    198       0.00000           0.173056            4.70910
    199       0.00000           0.175645            4.77955
    200       0.00000           0.178274            4.85107
    201       0.00000           0.180064            4.89978
    202       0.00000           0.181600            4.94160
    203       0.00000           0.183502            4.99334
    204       0.00000           0.185142            5.03796
    205       0.00000           0.186646            5.07891
    206       0.00000           0.188516            5.12978
    207       0.00000           0.189061            5.14461
    208       0.00000           0.190359            5.17994
    209       0.00000           0.191540            5.21207
    210       0.00000           0.195714            5.32565
    211       0.00000           0.199327            5.42396
    212       0.00000           0.209205            5.69275
    213       0.00000           0.211111            5.74463
    214       0.00000           0.212429            5.78048
    215       0.00000           0.213240            5.80255
    216       0.00000           0.214934            5.84866
    217       0.00000           0.217425            5.91644
    218       0.00000           0.218672            5.95038
    219       0.00000           0.222501            6.05456
    220       0.00000           0.224440            6.10732
    221       0.00000           0.225613            6.13925
    222       0.00000           0.227296            6.18504
    223       0.00000           0.227577            6.19268
    224       0.00000           0.230902            6.28316
    225       0.00000           0.231783            6.30714
    226       0.00000           0.232826            6.33553
    227       0.00000           0.234146            6.37145
    228       0.00000           0.237289            6.45697
    229       0.00000           0.245884            6.69085
    230       0.00000           0.246065            6.69578
    231       0.00000           0.246790            6.71551
    232       0.00000           0.250413            6.81409
    233       0.00000           0.254962            6.93787
    234       0.00000           0.255209            6.94459
    235       0.00000           0.259677            7.06616
    236       0.00000           0.260136            7.07867
    237       0.00000           0.269303            7.32810
    238       0.00000           0.274252            7.46277
    239       0.00000           0.275321            7.49187
    240       0.00000           0.277154            7.54176
    241       0.00000           0.279789            7.61343
    242       0.00000           0.282921            7.69867
    243       0.00000           0.284789            7.74951
    244       0.00000           0.287309            7.81807
    245       0.00000           0.289113            7.86716
    246       0.00000           0.290795            7.91294
    247       0.00000           0.291424            7.93006
    248       0.00000           0.292242            7.95231
    249       0.00000           0.292907            7.97041
    250       0.00000           0.294184            8.00517
    251       0.00000           0.295177            8.03217
    252       0.00000           0.301224            8.19672
    253       0.00000           0.304533            8.28675
    254       0.00000           0.311653            8.48051
    255       0.00000           0.315129            8.57509
    256       0.00000           0.320682            8.72620
    257       0.00000           0.322250            8.76887
    258       0.00000           0.323696            8.80822
    259       0.00000           0.327651            8.91585
    260       0.00000           0.331199            9.01239
    261       0.00000           0.335099            9.11852
    262       0.00000           0.336333            9.15207
    263       0.00000           0.339049            9.22598
    264       0.00000           0.339113            9.22773
    265       0.00000           0.341476            9.29204
    266       0.00000           0.341893            9.30338
    267       0.00000           0.342999            9.33346
    268       0.00000           0.345128            9.39142
    269       0.00000           0.350225            9.53010
    270       0.00000           0.353421            9.61709
    271       0.00000           0.357322            9.72323
    272       0.00000           0.360866            9.81966
    273       0.00000           0.363720            9.89733
    274       0.00000           0.365156            9.93639
    275       0.00000           0.369297           10.04907
    276       0.00000           0.373575           10.16549
    277       0.00000           0.380657           10.35819
    278       0.00000           0.382442           10.40678
    279       0.00000           0.386177           10.50841
    280       0.00000           0.389243           10.59185
    281       0.00000           0.393586           10.71002
    282       0.00000           0.394614           10.73800
    283       0.00000           0.395801           10.77029
    284       0.00000           0.397420           10.81434
    285       0.00000           0.398132           10.83374
    286       0.00000           0.402518           10.95307
    287       0.00000           0.404523           11.00764
    288       0.00000           0.405466           11.03330

  Highest occupied state (VBM) at     -4.88214966 eV
  | Occupation number:      2.00000000

  Lowest unoccupied state (CBM) at    -2.62379242 eV
  | Occupation number:      0.00000000

  Overall HOMO-LUMO gap:      2.25835724 eV.

  Total energy components:
  | Sum of eigenvalues            :        -917.78936711 Ha      -24974.31935834 eV
  | XC energy correction          :        -233.61355768 Ha       -6356.94834252 eV
  | XC potential correction       :         300.13024850 Ha        8166.95959200 eV
  | Free-atom electrostatic energy:        -701.61439444 Ha      -19091.89905789 eV
  | Hartree energy correction     :         -57.86936919 Ha       -1574.70565567 eV
  | Entropy correction            :           0.00000000 Ha           0.00000000 eV
  | ---------------------------
  | Total energy                  :       -1610.75643992 Ha      -43830.91282243 eV
  | Total energy, T -> 0          :       -1610.75643992 Ha      -43830.91282243 eV  <-- do not rely on this value for anything but (periodic) metals
  | Electronic free energy        :       -1610.75643992 Ha      -43830.91282243 eV

  Derived energy quantities:
  | Kinetic energy                :        1607.66305617 Ha       43746.73756798 eV
  | Electrostatic energy          :       -2984.80593841 Ha      -81220.70204788 eV
  | Energy correction for multipole
  | error in Hartree potential    :          -0.21413074 Ha          -5.82679391 eV
  | Sum of eigenvalues per atom                           :        -416.23865597 eV
  | Total energy (T->0) per atom                          :        -730.51521371 eV  <-- do not rely on this value for anything but (periodic) metals
  | Electronic free energy per atom                       :        -730.51521371 eV
  End evaluation of scaled ZORA corrections.
  | Time for scaled ZORA corrections           :        8.646 s           8.656 s
------------------------------------------------------------

  Energy and forces in a compact form:
  | Total energy uncorrected      :         -0.438309128224295E+05 eV
  | Total energy corrected        :         -0.438309128224295E+05 eV  <-- do not rely on this value for anything but (periodic) metals
  | Electronic free energy        :         -0.438309128224295E+05 eV

  ------------------------------------ 
  Start decomposition of the XC Energy 
  ------------------------------------ 
  X and C from original XC functional choice 
  Hartree-Fock Energy :          0.000000000 Ha              0.000000000 eV
  X Energy            :       -224.429334963 Ha          -6107.032926744 eV
  C Energy            :         -9.184222720 Ha           -249.915415778 eV
  Total XC Energy     :       -233.613557683 Ha          -6356.948342522 eV
  ------------------------------------ 
  LDA X and C from self-consistent density 
  X Energy LDA        :       -203.410748432 Ha          -5535.088087026 eV
  C Energy LDA        :        -17.580910406 Ha           -478.400912931 eV
  ------------------------------------ 
  End decomposition of the XC Energy 
  ------------------------------------ 

------------------------------------------------------------

------------------------------------------------------------------------------
  Final output of selected total energy values:

  The following output summarizes some interesting total energy values
  at the end of a run (AFTER all relaxation, molecular dynamics, etc.).

  | Total energy of the DFT / Hartree-Fock s.c.f. calculation      :         -43830.912822429 eV
  | Final zero-broadening corrected energy (caution - metals only) :         -43830.912822429 eV
  | For reference only, the value of 1 Hartree used in FHI-aims is :             27.211384500 eV

  Before relying on these values, please be sure to understand exactly which
  total energy value is referred to by a given number. Different objects may
  all carry the same name 'total energy'. Definitions:

  Total energy of the DFT / Hartree-Fock s.c.f. calculation:
  | Note that this energy does not include ANY quantities calculated after the
  | s.c.f. cycle, in particular not ANY RPA, MP2, etc. many-body perturbation terms.
  | Scalar relativistic effects have been included in the 'scaled ZORA' approximation.

  Final zero-broadening corrected energy:
  | For metallic systems only, a broadening of the occupation numbers at the Fermi
  | level can be extrapolated back to zero broadening by an electron-gas inspired
  | formula. For all systems that are not real metals, this value can be
  | meaningless and should be avoided.

------------------------------------------------------------------------------
  Methods described in the following list of references were used in this FHI-aims run.
  If you publish the results, please make sure to cite these reference if they apply.
  FHI-aims is an academic code, and for our developers (often, Ph.D. students
  and postdocs), scientific credit in the community is essential.
  Thank you for helping us!

  For any use of FHI-aims, please cite:

    Volker Blum, Ralf Gehrke, Felix Hanke, Paula Havu, Ville Havu,
    Xinguo Ren, Karsten Reuter, and Matthias Scheffler
    'Ab initio molecular simulations with numeric atom-centered orbitals'
    Computer Physics Communications 180, 2175-2196 (2009)
    http://dx.doi.org/10.1016/j.cpc.2009.06.022


  The scalable eigensolver library ELPA was used in your run.
  ELPA is essential especially for large systems on hundreds or thousands of CPUs.
  For ELPA, please cite:

    Andreas Marek, Volker Blum, Rainer Johanni, Ville Havu, Bruno Lang,
    Thomas Auckenthaler, Alexander Heinecke, Hans-Joachim Bungartz, and Hermann Lederer,
    'The ELPA Library - Scalable Parallel Eigenvalue Solutions
    for Electronic Structure Theory and Computational Science'
    The Journal of Physics: Condensed Matter 26, 213201 (2014).
    http://dx.doi.org/10.1088/0953-8984/26/21/213201


  The ELSI infrastructure was used in your run to solve the Kohn-Sham electronic structure.
  Please check out http://elsi-interchange.org to learn more.
  If scalability is important for your project, please acknowledge ELSI by citing:

    V. W-z. Yu, F. Corsetti, A. Garcia, W. P. Huhn, M. Jacquelin, W. Jia,
    B. Lange, L. Lin, J. Lu, W. Mi, A. Seifitokaldani, A. Vazquez-Mayagoitia,
    C. Yang, H. Yang, and V. Blum
    'ELSI: A unified software interface for Kohn-Sham electronic structure solvers'
    Computer Physics Communications 222, 267-285 (2018).
    http://dx.doi.org/10.1016/j.cpc.2017.09.007


  For the real-space grid partitioning and parallelization used in this calculation, please cite:

    Ville Havu, Volker Blum, Paula Havu, and Matthias Scheffler,
    'Efficient O(N) integration for all-electron electronic structure calculation'
    'using numerically tabulated basis functions'
    Journal of Computational Physics 228, 8367-8379 (2009).
    http://dx.doi.org/10.1016/j.jcp.2009.08.008

  Of course, there are many other important community references, e.g., those cited in the
  above references. Our list is limited to references that describe implementations in the
  FHI-aims code. The reason is purely practical (length of this list) - please credit others as well.

------------------------------------------------------------
          Leaving FHI-aims.
          Date     :  20210620, Time     :  170749.238

          Computational steps:
          | Number of self-consistency cycles          :           19
          | Number of SCF (re)initializations          :            1

          Detailed time accounting                     :  max(cpu_time)    wall_clock(cpu1)
          | Total time                                 :      173.464 s         181.013 s
          | Preparation time                           :        0.225 s           0.272 s
          | Boundary condition initalization           :        0.001 s           0.004 s
          | Grid partitioning                          :        1.099 s           1.105 s
          | Preloading free-atom quantities on grid    :        0.024 s           0.028 s
          | Free-atom superposition energy             :        0.092 s           0.092 s
          | Total time for integrations                :      100.387 s         100.422 s
          | Total time for solution of K.-S. equations :        5.182 s           5.245 s
          | Total time for density update              :       41.076 s          41.008 s
          | Total time for mixing                      :        0.193 s           0.223 s
          | Total time for Hartree multipole update    :        0.235 s           0.241 s
          | Total time for Hartree multipole sum       :       14.890 s          14.905 s
          | Total time for total energy evaluation     :        0.009 s           0.034 s
          | Total time for scaled ZORA corrections     :        8.646 s           8.656 s

          Partial memory accounting:
          | Residual value for overall tracked memory usage across tasks :     0.000000 MB (should be 0.000000 MB)
          | Peak values for overall tracked memory usage (after allocating zora_vector2):
          |   Minimum:       35.018 MB (on task  1)
          |   Maximum:       47.234 MB (on task 16)
          |   Average:       39.754 MB
          | Largest tracked array allocation (hamiltonian_shell):
          |   Minimum:       10.197 MB (on task  1)
          |   Maximum:       10.556 MB (on task 16)
          |   Average:       10.210 MB
          Note:  These values currently only include a subset of arrays which are explicitly tracked.
          The "true" memory usage will be greater.

          Have a nice day.
------------------------------------------------------------
