  MPI-parallelism will be employed.
------------------------------------------------------------
          Invoking FHI-aims ...
          Version 180607
          Git rev. (modified): 6724847 Fix JSON memory corruption in scf_solver
          Compiled on 2018/06/27 at 16:00:31 on host coe.psc.edu.

          When using FHI-aims, please cite the following reference:

          Volker Blum, Ralf Gehrke, Felix Hanke, Paula Havu,
          Ville Havu, Xinguo Ren, Karsten Reuter, and Matthias Scheffler,
          'Ab Initio Molecular Simulations with Numeric Atom-Centered Orbitals',
          Computer Physics Communications 180, 2175-2196 (2009)

          For any questions about FHI-aims, please visit the aimsclub website
          with its forums and wiki. Contributions to both the forums and the
          wiki are warmly encouraged - they are for you, and everyone is welcome there.

------------------------------------------------------------



  Date     :  20210620, Time     :  172442.067
  Time zero on CPU 1             :   0.270335000000000E+00  s.
  Internal wall clock time zero  :           393441882.067  s.

  FHI-aims created a unique identifier for this run for later identification
  aims_uuid : 81114CD0-2C2C-4E42-A074-372F0927C285

  Using       56 parallel tasks.
  Task        0 on host d001 reporting.
  Task        1 on host d001 reporting.
  Task        2 on host d001 reporting.
  Task        3 on host d001 reporting.
  Task        4 on host d001 reporting.
  Task        5 on host d001 reporting.
  Task        6 on host d001 reporting.
  Task        7 on host d001 reporting.
  Task        8 on host d001 reporting.
  Task        9 on host d001 reporting.
  Task       10 on host d001 reporting.
  Task       11 on host d001 reporting.
  Task       12 on host d001 reporting.
  Task       13 on host d001 reporting.
  Task       14 on host d001 reporting.
  Task       15 on host d001 reporting.
  Task       16 on host d001 reporting.
  Task       17 on host d001 reporting.
  Task       18 on host d001 reporting.
  Task       19 on host d001 reporting.
  Task       20 on host d001 reporting.
  Task       21 on host d001 reporting.
  Task       22 on host d001 reporting.
  Task       23 on host d001 reporting.
  Task       24 on host d001 reporting.
  Task       25 on host d001 reporting.
  Task       26 on host d001 reporting.
  Task       27 on host d001 reporting.
  Task       28 on host d001 reporting.
  Task       29 on host d001 reporting.
  Task       30 on host d001 reporting.
  Task       31 on host d001 reporting.
  Task       32 on host d001 reporting.
  Task       33 on host d001 reporting.
  Task       34 on host d001 reporting.
  Task       35 on host d001 reporting.
  Task       36 on host d001 reporting.
  Task       37 on host d001 reporting.
  Task       38 on host d001 reporting.
  Task       39 on host d001 reporting.
  Task       40 on host d001 reporting.
  Task       41 on host d001 reporting.
  Task       42 on host d001 reporting.
  Task       43 on host d001 reporting.
  Task       44 on host d001 reporting.
  Task       45 on host d001 reporting.
  Task       46 on host d001 reporting.
  Task       47 on host d001 reporting.
  Task       48 on host d001 reporting.
  Task       49 on host d001 reporting.
  Task       50 on host d001 reporting.
  Task       51 on host d001 reporting.
  Task       52 on host d001 reporting.
  Task       53 on host d001 reporting.
  Task       54 on host d001 reporting.
  Task       55 on host d001 reporting.

  Performing system and environment tests:
  *** Environment variable OMP_NUM_THREADS is not set
  *** For performance reasons you might want to set it to 1
  | Stacksize not measured: no C compiler
  | Checking for scalapack...
  | Testing pdtran()...
  | All pdtran() tests passed.

  Obtaining array dimensions for all initial allocations:
  
  -----------------------------------------------------------------------
  Parsing control.in (first pass over file, find array dimensions only).
  The contents of control.in will be repeated verbatim below
  unless switched off by setting 'verbatim_writeout .false.' .
  in the first line of control.in .
  -----------------------------------------------------------------------
  
  #===============================================================================
  # FHI-aims file: ./Runs/es/control.in
  # Created using the Atomic Simulation Environment (ASE)
  # Mon Jan 13 16:04:38 2020
  #===============================================================================
  xc                                 pbe
  relativistic                       zora scalar 1e-12
  occupation_type                    gaussian 0.0001
  load_balancing                     .true.
  KS_method                          scalapack_fast
  mixer                              pulay
  n_max_pulay                        5
  charge_mix_param                   0.4
  sc_accuracy_etot                   1e-6
  sc_accuracy_eev                    1e-4
  sc_accuracy_rho                    1e-6
  sc_iter_limit                      100
  prodbas_threshold                  1e-4
  basis_threshold                    1e-5
  override_illconditioning           .true.
  use_logsbt                         .true.
  spin                               none
  charge                             0
  #===============================================================================
  
  ################################################################################
  #
  #  FHI-aims code project
  # Volker Blum, Fritz Haber Institute Berlin, 2009
  #
  #  Suggested "tight" defaults for H atom (to be pasted into control.in file)
  #
  ################################################################################
    species        H
  #     global species definitions
      nucleus             1
      mass                1.00794
  #
      l_hartree           6
  #
      cut_pot             4.0  2.0  1.0
      basis_dep_cutoff    1e-4
  #
      radial_base         24 7.0
      radial_multiplier   2
      angular_grids       specified
        division   0.1930   50
        division   0.3175  110
        division   0.4293  194
        division   0.5066  302
        division   0.5626  434
  #      division   0.5922  590
  #      division   0.6227  974
  #      division   0.6868 1202
  #      outer_grid  770
        outer_grid  434
  ################################################################################
  #
  #  Definition of "minimal" basis
  #
  ################################################################################
  #     valence basis states
      valence      1  s   1.
  #     ion occupancy
      ion_occ      1  s   0.5
  ################################################################################
  #
  #  Suggested additional basis functions. For production calculations,
  #  uncomment them one after another (the most important basis functions are
  #  listed first).
  #
  #  Basis constructed for dimers: 0.5 A, 0.7 A, 1.0 A, 1.5 A, 2.5 A
  #
  ################################################################################
  #  "First tier" - improvements: -1014.90 meV to -62.69 meV
       hydro 2 s 2.1
       hydro 2 p 3.5
  #  "Second tier" - improvements: -12.89 meV to -1.83 meV
       hydro 1 s 0.85
       hydro 2 p 3.7
       hydro 2 s 1.2
       hydro 3 d 7
  #  "Third tier" - improvements: -0.25 meV to -0.12 meV
  #     hydro 4 f 11.2
  #     hydro 3 p 4.8
  #     hydro 4 d 9
  #     hydro 3 s 3.2
  ################################################################################
  #
  # For methods that use the localized form of the "resolution of identity" for
  # the two-electron Coulomb operator (RI_method LVL), particularly Hartree-Fock and
  # hybrid density functional calculations, the highest accuracy can be obtained by
  # uncommenting the line beginning with "for_aux"  below, thus adding an extra g radial
  # function to the construction of the product basis set for the expansion.
  # See Ref. New J. Phys. 17, 093020 (2015) for more information, particularly Figs. 1 and 6.
  #
  ################################################################################
  #
  # for_aux hydro 5 g 6.0
  ################################################################################
  #
  #  FHI-aims code project
  # Volker Blum, Fritz Haber Institute Berlin, 2009
  #
  #  Suggested "tight" defaults for C atom (to be pasted into control.in file)
  #
  ################################################################################
    species        C
  #     global species definitions
      nucleus             6
      mass                12.0107
  #
      l_hartree           6
  #
      cut_pot             4.0  2.0  1.0
      basis_dep_cutoff    1e-4
  #
      radial_base         34 7.0
      radial_multiplier   2
      angular_grids specified
        division   0.2187   50
        division   0.4416  110
        division   0.6335  194
        division   0.7727  302
        division   0.8772  434
  #      division   0.9334  590
  #      division   0.9924  770
  #      division   1.0230  974
  #      division   1.5020 1202
  #     outer_grid  974
        outer_grid  434
  ################################################################################
  #
  #  Definition of "minimal" basis
  #
  ################################################################################
  #     valence basis states
      valence      2  s   2.
      valence      2  p   2.
  #     ion occupancy
      ion_occ      2  s   1.
      ion_occ      2  p   1.
  ################################################################################
  #
  #  Suggested additional basis functions. For production calculations,
  #  uncomment them one after another (the most important basis functions are
  #  listed first).
  #
  #  Constructed for dimers: 1.0 A, 1.25 A, 1.5 A, 2.0 A, 3.0 A
  #
  ################################################################################
  #  "First tier" - improvements: -1214.57 meV to -155.61 meV
       hydro 2 p 1.7
       hydro 3 d 6
       hydro 2 s 4.9
  #  "Second tier" - improvements: -67.75 meV to -5.23 meV
       hydro 4 f 9.8
       hydro 3 p 5.2
       hydro 3 s 4.3
       hydro 5 g 14.4
       hydro 3 d 6.2
  #  "Third tier" - improvements: -2.43 meV to -0.60 meV
  #     hydro 2 p 5.6
  #     hydro 2 s 1.4
  #     hydro 3 d 4.9
  #     hydro 4 f 11.2
  #  "Fourth tier" - improvements: -0.39 meV to -0.18 meV
  #     hydro 2 p 2.1
  #     hydro 5 g 16.4
  #     hydro 4 d 13.2
  #     hydro 3 s 13.6
  #     hydro 4 f 17.6
  #  Further basis functions - improvements: -0.08 meV and below
  #     hydro 3 s 2
  #     hydro 3 p 6
  #     hydro 4 d 20
  ################################################################################
  #
  # For methods that use the localized form of the "resolution of identity" for
  # the two-electron Coulomb operator (RI_method LVL), particularly Hartree-Fock and
  # hybrid density functional calculations, the highest accuracy can be obtained by
  # uncommenting the line beginning with "for_aux"  below, thus adding an extra g radial
  # function to the construction of the product basis set for the expansion.
  # See Ref. New J. Phys. 17, 093020 (2015) for more information, particularly Figs. 1 and 6.
  #
  ################################################################################
  #
  # for_aux hydro 5 g 6.0
  
  -----------------------------------------------------------------------
  Completed first pass over input file control.in .
  -----------------------------------------------------------------------
  
  
  -----------------------------------------------------------------------
  Parsing geometry.in (first pass over file, find array dimensions only).
  The contents of geometry.in will be repeated verbatim below
  unless switched off by setting 'verbatim_writeout .false.' .
  in the first line of geometry.in .
  -----------------------------------------------------------------------
  
  #=======================================================
  # FHI-aims file: geometry.in
  # Created using the Atomic Simulation Environment (ASE)
  # Sun Jun 20 15:47:01 2021
  #=======================================================
  atom 2.1902620000000002 25.8537859999999995 45.4085189999999983 H
  atom 1.9625269999999999 24.8224039999999988 45.6614509999999996 C
  atom 1.4050490000000000 23.9860119999999988 44.7033580000000015 C
  atom 2.3034829999999999 24.3760249999999985 46.9548569999999970 C
  atom 1.2299130000000000 22.6053970000000000 45.0317250000000016 C
  atom 1.1628890000000001 24.4428610000000006 43.3312349999999995 C
  atom 2.0519820000000002 23.0278160000000014 47.2940290000000019 C
  atom 2.9004270000000001 25.2362369999999991 47.9106349999999992 C
  atom 0.7416239999999999 21.7025569999999988 43.9939520000000002 C
  atom 1.5304180000000001 22.1714780000000005 46.3160639999999972 C
  atom 1.1061399999999999 23.5020029999999984 42.3137200000000036 C
  atom 0.9637310000000000 25.8502609999999997 42.9949579999999969 C
  atom 2.3656459999999999 22.5880550000000007 48.6169539999999998 C
  atom 3.1982759999999999 24.7730829999999997 49.1637190000000004 C
  atom 3.1025990000000001 26.2697089999999989 47.6335869999999986 H
  atom 0.2780830000000000 20.4023989999999991 44.3064990000000023 C
  atom 0.7203490000000000 22.1252630000000003 42.6525060000000025 C
  atom 1.4006350000000001 21.1230779999999996 46.5786420000000021 H
  atom 1.4508700000000001 23.9387289999999986 40.9533670000000001 C
  atom 0.4659490000000000 26.7843030000000013 43.9343360000000018 C
  atom 1.1045940000000001 26.2827109999999990 41.6517750000000007 C
  atom 2.1516890000000002 21.5532059999999994 48.8835839999999990 H
  atom 2.9239540000000002 23.4433809999999987 49.5210259999999991 C
  atom 3.6597590000000002 25.4392560000000003 49.8908739999999966 H
  atom -0.2141910000000000 19.5655320000000010 43.3464770000000001 C
  atom 0.2930040000000000 20.0700819999999993 45.3413790000000034 H
  atom 0.1747760000000000 21.2537599999999998 41.6984640000000013 C
  atom 1.8836090000000001 23.0310479999999984 39.9534080000000031 C
  atom 1.5291779999999999 25.3160039999999995 40.6539379999999966 C
  atom 0.2758860000000000 26.4530379999999994 44.9503089999999972 H
  atom 0.1615560000000000 28.0746949999999984 43.5778010000000009 C
  atom 0.8024130000000000 27.6105200000000011 41.3345970000000023 C
  atom 3.1743389999999998 23.0952500000000001 50.5231070000000031 H
  atom -0.5791530000000000 18.5756310000000013 43.6173509999999993 H
  atom -0.2848480000000000 19.9970469999999985 42.0279900000000026 C
  atom 0.0534120000000000 21.6069999999999993 40.6811420000000012 H
  atom 1.9015160000000000 21.9691119999999991 40.1694900000000032 H
  atom 2.3515359999999998 23.4658979999999993 38.7346649999999997 C
  atom 2.0068079999999999 25.7220130000000005 39.4014329999999973 C
  atom -0.2650280000000000 28.7523090000000003 44.3180750000000003 H
  atom 0.3374430000000000 28.4986880000000014 42.2654870000000003 C
  atom 0.8995100000000000 27.9392800000000001 40.3014539999999997 H
  atom -0.7376320000000000 19.3669599999999988 41.2618620000000007 H
  atom 2.7086090000000000 22.7357620000000011 38.0105969999999971 H
  atom 2.4117099999999998 24.8160050000000005 38.4512500000000017 C
  atom 2.0994389999999998 26.7868729999999999 39.1938400000000016 H
  atom 0.0784300000000000 29.5162329999999997 41.9766699999999986 H
  atom 2.8156400000000001 25.1641319999999986 37.5010669999999990 H
  
  -----------------------------------------------------------------------
  Completed first pass over input file geometry.in .
  -----------------------------------------------------------------------
  

  Basic array size parameters:
  | Number of species                 :        2
  | Number of atoms                   :       48
  | Max. basis fn. angular momentum   :        4
  | Max. atomic/ionic basis occupied n:        2
  | Max. number of basis fn. types    :        2
  | Max. radial fns per species/type  :        8
  | Max. logarithmic grid size        :     1277
  | Max. radial integration grid size :       69
  | Max. angular integration grid size:      434
  | Max. angular grid division number :        8
  | Radial grid for Hartree potential :     1277
  | Number of spin channels           :        1

------------------------------------------------------------
          Reading file control.in.
------------------------------------------------------------
  XC: Using PBE gradient-corrected functionals.
  Scalar relativistic treatment of kinetic energy: ZORA.
  Threshold value for ZORA:   0.100000E-11
  Occupation type: Gaussian broadening, width =   0.100000E-03 eV.
  Since 'load_balancing .true.' is present in control.in, automatically turning on 'use_local_index .true.'.
  Using load balancing for integrations.
  Kohn-Sham electronic structure solved by the ELSI library.
  Using pulay charge density mixing.
  Pulay mixing - number of memorized iterations:    5
  Charge density mixing - mixing parameter:     0.4000
  Convergence accuracy of total energy:  0.1000E-05
  Convergence accuracy of sum of eigenvalues:  0.1000E-03
  Convergence accuracy of self-consistent charge density:  0.1000E-05
  Maximum number of s.-c. iterations  :   100
  * Ignoring prodbas_threshold
  Threshold for basis singularities:  0.1000E-04
  override_illconditioning: Explicitly overriding any built-in checks for an ill-conditioned overlap matrix.
  *** WARNING: If you use this flag, you should really know what you are doing.
  *** DO NOT keep this flag set by default in all your control.in files.
  Using 1D integrations for auxiliary 2-center integrals.
  Spin treatment: No spin polarisation.
  Charge =   0.000000E+00: Neutral system requested explicitly.
 
  Reading configuration options for species H                   .
  | Found nuclear charge :   1.0000
  | Found atomic mass :    1.00794000000000      amu
  | Found l_max for Hartree potential  :   6
  | Found cutoff potl. onset [A], width [A], scale factor :    4.00000    2.00000    1.00000
  | Threshold for basis-dependent cutoff potential is   0.100000E-03
  | Found data for basic radial integration grid :    24 points, outermost radius =    7.000 A
  | Found multiplier for basic radial grid :   2
  | Found angular grid specification: user-specified.
  | Specified grid contains     6 separate shells.
  | Check grid settings after all constraints further below.
  | Found free-atom valence shell :  1 s   1.000
  | No ionic wave fns used. Skipping ion_occ.
  | Found hydrogenic basis function :  2 s   2.100
  | Found hydrogenic basis function :  2 p   3.500
  | Found hydrogenic basis function :  1 s   0.850
  | Found hydrogenic basis function :  2 p   3.700
  | Found hydrogenic basis function :  2 s   1.200
  | Found hydrogenic basis function :  3 d   7.000
  Species H                   : Missing cutoff potential type.
  Defaulting to exp(1/x)/(1-x)^2 type cutoff potential.
  Species H : No 'logarithmic' tag. Using default grid for free atom:
  | Default logarithmic grid data [bohr] : 0.1000E-03 0.1000E+03 0.1012E+01
  Species H : On-site basis accuracy parameter (for Gram-Schmidt orthonormalisation) not specified.
  Using default value basis_acc =  0.1000000E-03.
  Species H                   : Using default innermost maximum threshold i_radial=  2 for radial functions.
  Species H                   : Default cutoff onset for free atom density etc. : 0.40000000E+01 AA.
  Species H                   : Basic radial grid will be enhanced according to radial_multiplier =   2, to contain    49 grid points.
 
  Reading configuration options for species C                   .
  | Found nuclear charge :   6.0000
  | Found atomic mass :    12.0107000000000      amu
  | Found l_max for Hartree potential  :   6
  | Found cutoff potl. onset [A], width [A], scale factor :    4.00000    2.00000    1.00000
  | Threshold for basis-dependent cutoff potential is   0.100000E-03
  | Found data for basic radial integration grid :    34 points, outermost radius =    7.000 A
  | Found multiplier for basic radial grid :   2
  | Found angular grid specification: user-specified.
  | Specified grid contains     6 separate shells.
  | Check grid settings after all constraints further below.
  | Found free-atom valence shell :  2 s   2.000
  | Found free-atom valence shell :  2 p   2.000
  | No ionic wave fns used. Skipping ion_occ.
  | No ionic wave fns used. Skipping ion_occ.
  | Found hydrogenic basis function :  2 p   1.700
  | Found hydrogenic basis function :  3 d   6.000
  | Found hydrogenic basis function :  2 s   4.900
  | Found hydrogenic basis function :  4 f   9.800
  | Found hydrogenic basis function :  3 p   5.200
  | Found hydrogenic basis function :  3 s   4.300
  | Found hydrogenic basis function :  5 g  14.400
  | Found hydrogenic basis function :  3 d   6.200
  Species C                   : Missing cutoff potential type.
  Defaulting to exp(1/x)/(1-x)^2 type cutoff potential.
  Species C : No 'logarithmic' tag. Using default grid for free atom:
  | Default logarithmic grid data [bohr] : 0.1000E-03 0.1000E+03 0.1012E+01
  Species C : On-site basis accuracy parameter (for Gram-Schmidt orthonormalisation) not specified.
  Using default value basis_acc =  0.1000000E-03.
  Species C                   : Using default innermost maximum threshold i_radial=  2 for radial functions.
  Species C                   : Default cutoff onset for free atom density etc. : 0.40000000E+01 AA.
  Species C                   : Basic radial grid will be enhanced according to radial_multiplier =   2, to contain    69 grid points.
 
  Finished reading input file 'control.in'. Consistency checks are next.
 
  MPI_IN_PLACE appears to work with this MPI implementation.
  | Keeping use_mpi_in_place .true. (see manual).
  Target number of points in a grid batch is not set. Defaulting to  100
  Method for grid partitioning is not set. Defaulting to parallel hash+maxmin partitioning.
  Batch size limit is not set. Defaulting to    200
  By default, will store active basis functions for each batch.
  If in need of memory, prune_basis_once .false. can be used to disable this option.
  communication_type for Hartree potential was not specified.
  Defaulting to calc_hartree .
  Pulay mixer: Number of initial linear mixing iterations not set.
  Defaulting to    0 iterations.
  Work space size for distributed Hartree potential not set.
  Defaulting to   0.200000E+03 MB.
  Algorithm-dependent basis array size parameters:
  | n_max_pulay                         :        5
  Presetting      1001 iterations before the initial mixing cycle
  is restarted anyway using the sc_init_iter criterion / keyword.
  Presetting a factor      1.000 between actual scf density residual
  and density convergence criterion sc_accuracy_rho below which sc_init_iter
  takes no effect.
  Calculation of forces was not defined in control.in. No forces will be calculated.
  Geometry relaxation not requested: no relaxation will be performed.
  No accuracy limit for integral partition fn. given. Defaulting to  0.1000E-14.
  No threshold value for u(r) in integrations given. Defaulting to  0.1000E-05.
  No accuracy for occupation numbers given. Defaulting to  0.1000E-12.
  No threshold value for occupation numbers given. Defaulting to  0.0000E+00.
  No accuracy for fermi level given. Defaulting to  0.1000E-19.
  Maximum # of iterations to find E_F not set. Defaulting to  200.
  Will not use alltoall communication since running on < 1024 CPUs.
  partition_type (choice of integration weights) for integrals was not specified.
  | Using a version of the partition function of Stratmann and coworkers ('stratmann_sparse').
  | At each grid point, the set of atoms used to build the partition table is smoothly restricted to
  | only those atoms whose free-atom density would be non-zero at that grid point.
  Partitioning for Hartree potential was not defined. Using partition_type for integrals.
  | Adjusted default value of keyword multip_moments_threshold to:       0.10000000E-11
  | This value may affect high angular momentum components of the Hartree potential in periodic systems.
  No q(lm)/r^(l+1) cutoff set for long-range Hartree potential.
  | Using default value of  0.100000E-09 .
  | Verify using the multipole_threshold keyword.
  Defaulting to new monopole extrapolation.
  Density update method: automatic selection selected.
 * Warning: use_local_index and/or load_balancing needs packed_matrix_format = index
 * Changing the default setting to packed_matrix_format = index
------------------------------------------------------------


------------------------------------------------------------
          Reading geometry description geometry.in.
------------------------------------------------------------
  Input structure read successfully.
  The structure contains       48 atoms,  and a total of        198.000 electrons.

  Input geometry:
  | No unit cell requested.
  | Atomic structure:
  |       Atom                x [A]            y [A]            z [A]
  |    1: Species H             2.19026200       25.85378600       45.40851900
  |    2: Species C             1.96252700       24.82240400       45.66145100
  |    3: Species C             1.40504900       23.98601200       44.70335800
  |    4: Species C             2.30348300       24.37602500       46.95485700
  |    5: Species C             1.22991300       22.60539700       45.03172500
  |    6: Species C             1.16288900       24.44286100       43.33123500
  |    7: Species C             2.05198200       23.02781600       47.29402900
  |    8: Species C             2.90042700       25.23623700       47.91063500
  |    9: Species C             0.74162400       21.70255700       43.99395200
  |   10: Species C             1.53041800       22.17147800       46.31606400
  |   11: Species C             1.10614000       23.50200300       42.31372000
  |   12: Species C             0.96373100       25.85026100       42.99495800
  |   13: Species C             2.36564600       22.58805500       48.61695400
  |   14: Species C             3.19827600       24.77308300       49.16371900
  |   15: Species H             3.10259900       26.26970900       47.63358700
  |   16: Species C             0.27808300       20.40239900       44.30649900
  |   17: Species C             0.72034900       22.12526300       42.65250600
  |   18: Species H             1.40063500       21.12307800       46.57864200
  |   19: Species C             1.45087000       23.93872900       40.95336700
  |   20: Species C             0.46594900       26.78430300       43.93433600
  |   21: Species C             1.10459400       26.28271100       41.65177500
  |   22: Species H             2.15168900       21.55320600       48.88358400
  |   23: Species C             2.92395400       23.44338100       49.52102600
  |   24: Species H             3.65975900       25.43925600       49.89087400
  |   25: Species C            -0.21419100       19.56553200       43.34647700
  |   26: Species H             0.29300400       20.07008200       45.34137900
  |   27: Species C             0.17477600       21.25376000       41.69846400
  |   28: Species C             1.88360900       23.03104800       39.95340800
  |   29: Species C             1.52917800       25.31600400       40.65393800
  |   30: Species H             0.27588600       26.45303800       44.95030900
  |   31: Species C             0.16155600       28.07469500       43.57780100
  |   32: Species C             0.80241300       27.61052000       41.33459700
  |   33: Species H             3.17433900       23.09525000       50.52310700
  |   34: Species H            -0.57915300       18.57563100       43.61735100
  |   35: Species C            -0.28484800       19.99704700       42.02799000
  |   36: Species H             0.05341200       21.60700000       40.68114200
  |   37: Species H             1.90151600       21.96911200       40.16949000
  |   38: Species C             2.35153600       23.46589800       38.73466500
  |   39: Species C             2.00680800       25.72201300       39.40143300
  |   40: Species H            -0.26502800       28.75230900       44.31807500
  |   41: Species C             0.33744300       28.49868800       42.26548700
  |   42: Species H             0.89951000       27.93928000       40.30145400
  |   43: Species H            -0.73763200       19.36696000       41.26186200
  |   44: Species H             2.70860900       22.73576200       38.01059700
  |   45: Species C             2.41171000       24.81600500       38.45125000
  |   46: Species H             2.09943900       26.78687300       39.19384000
  |   47: Species H             0.07843000       29.51623300       41.97667000
  |   48: Species H             2.81564000       25.16413200       37.50106700
  |

  | The smallest distance between any two atoms is         1.08372126 AA.
  |
  | The first atom of this pair is atom number                     27 .
  | The second atom of this pair is atom number                    36 .

  Number of empty states per atom not set in control.in - providing a guess from actual geometry.
  | Total number of empty states used during s.c.f. cycle:      117
  If you use a very high smearing, use empty_states (per atom!) in control.in to increase this value.

  Structure-dependent array size parameters: 
  | Maximum number of distinct radial functions  :       18
  | Maximum number of basis functions            :     1440
  | Number of Kohn-Sham states (occupied + empty):      216
------------------------------------------------------------

------------------------------------------------------------
          Preparing all fixed parts of the calculation.
------------------------------------------------------------
  Determining machine precision:
    2.225073858507201E-308
  Setting up grids for atomic and cluster calculations.

  Creating wave function, potential, and density for free atoms.

  Species: H

  List of occupied orbitals and eigenvalues:
    n    l              occ      energy [Ha]    energy [eV]
    1    0           1.0000        -0.238386        -6.4868


  Species: C

  List of occupied orbitals and eigenvalues:
    n    l              occ      energy [Ha]    energy [eV]
    1    0           2.0000       -10.049212      -273.4530
    2    0           2.0000        -0.504761       -13.7352
    2    1           2.0000        -0.193631        -5.2690

  Creating fixed part of basis set: Ionic, confined, hydrogenic.
 
  H                    hydrogenic:
 
  List of hydrogenic basis orbitals: 
    n    l      effective z      eigenvalue [eV]  inner max. [A]     outer max. [A]     outer radius [A]   
    2    0         2.100000       -14.9965           0.193243           1.317208           5.373006
    2    1         3.500000       -41.6672           0.602369           0.602369           4.056063
    1    0         0.850000        -9.8292           0.624871           0.624871           5.373006
    2    1         3.700000       -46.5653           0.573622           0.573622           3.910002
    2    0         1.200000        -4.5995           0.334980           2.228188           5.505995
    3    2         7.000000       -74.0753           0.680699           0.680699           3.769201
 
 
  C                    hydrogenic:
 
  List of hydrogenic basis orbitals: 
    n    l      effective z      eigenvalue [eV]  inner max. [A]     outer max. [A]     outer radius [A]   
    2    1         1.700000        -9.8152           1.245706           1.245706           5.401630
    3    2         6.000000       -54.4226           0.792453           0.792453           4.178599
    2    0         4.900000       -81.6681           0.082559           0.562749           3.353238
    4    3         9.800000       -81.6681           0.863254           0.863254           4.028125
    3    1         5.200000       -40.8774           0.305389           1.215618           4.898362
    3    0         4.300000       -27.9508           0.091041           1.610311           5.401630
    5    4        14.400000      -112.8510           0.917666           0.917666           3.883070
    3    2         6.200000       -58.1113           0.763917           0.763917           4.077671
 

  Adding cutoff potential to free-atom effective potential.
  Creating atomic-like basis functions for current effective potential.

  Species H                   :

  List of atomic basis orbitals and eigenvalues:
    n    l      energy [Ha]    energy [eV]    outer radius [A]
    1    0        -0.238386        -6.4868       5.373006


  Species C                   :

  List of atomic basis orbitals and eigenvalues:
    n    l      energy [Ha]    energy [eV]    outer radius [A]
    1    0       -10.049212      -273.4530       1.934409
    2    0        -0.504761       -13.7352       5.271162
    2    1        -0.193631        -5.2690       5.401630

  Assembling full basis from fixed parts.
  | Species H :   atomic orbital   1 s accepted.
  | Species H :    hydro orbital   2 s accepted.
  | Species H :    hydro orbital   1 s accepted.
  | Species H :    hydro orbital   2 s accepted.
  | Species H :    hydro orbital   2 p accepted.
  | Species H :    hydro orbital   2 p accepted.
  | Species H :    hydro orbital   3 d accepted.
  | Species C :   atomic orbital   1 s accepted.
  | Species C :    hydro orbital   2 s accepted.
  | Species C :   atomic orbital   2 s accepted.
  | Species C :    hydro orbital   3 s accepted.
  | Species C :    hydro orbital   3 p accepted.
  | Species C :   atomic orbital   2 p accepted.
  | Species C :    hydro orbital   2 p accepted.
  | Species C :    hydro orbital   3 d accepted.
  | Species C :    hydro orbital   3 d accepted.
  | Species C :    hydro orbital   4 f accepted.
  | Species C :    hydro orbital   5 g accepted.
 
  Basis size parameters after reduction:
  | Total number of radial functions:       18
  | Total number of basis functions :     1440
 
  Per-task memory consumption for arrays in subroutine allocate_ext:
  |           4.447096MB.
  Testing on-site integration grid accuracy.
  |  Species  Function  <phi|h_atom|phi> (log., in eV)  <phi|h_atom|phi> (rad., in eV)
           1        1                 -6.4870767962                 -6.4871688290
           1        2                 13.5032046589                 13.5028982997
           1        3                 32.8195184817                 32.8119941656
           1        4                 33.8513856511                 33.7670005767 ***
           1        5                 28.8544614965                 28.8544615203
           1        6                 59.6326952547                 59.6327656460
           1        7                 60.2719308513                 60.2719305949
           2        8               -273.4529726040               -273.4529710464
           2        9                -10.7721037319                -10.7721022101
           2       10                 17.6044132601                 17.6044162063
           2       11                 53.7706460658                 53.7706913770
           2       12                 15.0973290362                 15.0973256030
           2       13                  3.8545134692                  3.8545724687
           2       14                 12.1156992592                 12.1182024431
           2       15                 29.4352039302                 29.4352041816
           2       16                 54.8741144708                 54.8740268729
           2       17                 59.3556032049                 59.3556031382
           2       18                 93.4551837154                 93.4551838009
 * Note: Onsite integrals marked "***" above are less accurate than
 * onsite_accuracy_threshold =    0.03000 eV. Usually, this is harmless.
 * When in doubt, tighten the "radial" and/or "radial_multiplier" flags to check.

  Preparing densities etc. for the partition functions (integrals / Hartree potential).

  Preparations completed.
  max(cpu_time)          :      0.204 s.
  Wall clock time (cpu1) :      0.212 s.
------------------------------------------------------------

------------------------------------------------------------
          Begin self-consistency loop: Initialization.

          Date     :  20210620, Time     :  172442.465
------------------------------------------------------------

  Initializing index lists of integration centers etc. from given atomic structure:
  | Number of centers in hartree potential         :        48
  | Number of centers in hartree multipole         :        48
  | Number of centers in electron density summation:        48
  | Number of centers in basis integrals           :        48
  | Number of centers in integrals                 :        48
  | Number of centers in hamiltonian               :        48
  * Using 56 tasks for Scalapack Eigenvalue solver.
  Detailed listing of tasks and assigned k-points:
  (for non-periodic systems, the "k-point" denotes an internal label only)
   Task     0 k-point     1 on d001
   Task     1 k-point     1 on d001
   Task     2 k-point     1 on d001
   Task     3 k-point     1 on d001
   Task     4 k-point     1 on d001
   Task     5 k-point     1 on d001
   Task     6 k-point     1 on d001
   Task     7 k-point     1 on d001
   Task     8 k-point     1 on d001
   Task     9 k-point     1 on d001
   Task    10 k-point     1 on d001
   Task    11 k-point     1 on d001
   Task    12 k-point     1 on d001
   Task    13 k-point     1 on d001
   Task    14 k-point     1 on d001
   Task    15 k-point     1 on d001
   Task    16 k-point     1 on d001
   Task    17 k-point     1 on d001
   Task    18 k-point     1 on d001
   Task    19 k-point     1 on d001
   Task    20 k-point     1 on d001
   Task    21 k-point     1 on d001
   Task    22 k-point     1 on d001
   Task    23 k-point     1 on d001
   Task    24 k-point     1 on d001
   Task    25 k-point     1 on d001
   Task    26 k-point     1 on d001
   Task    27 k-point     1 on d001
   Task    28 k-point     1 on d001
   Task    29 k-point     1 on d001
   Task    30 k-point     1 on d001
   Task    31 k-point     1 on d001
   Task    32 k-point     1 on d001
   Task    33 k-point     1 on d001
   Task    34 k-point     1 on d001
   Task    35 k-point     1 on d001
   Task    36 k-point     1 on d001
   Task    37 k-point     1 on d001
   Task    38 k-point     1 on d001
   Task    39 k-point     1 on d001
   Task    40 k-point     1 on d001
   Task    41 k-point     1 on d001
   Task    42 k-point     1 on d001
   Task    43 k-point     1 on d001
   Task    44 k-point     1 on d001
   Task    45 k-point     1 on d001
   Task    46 k-point     1 on d001
   Task    47 k-point     1 on d001
   Task    48 k-point     1 on d001
   Task    49 k-point     1 on d001
   Task    50 k-point     1 on d001
   Task    51 k-point     1 on d001
   Task    52 k-point     1 on d001
   Task    53 k-point     1 on d001
   Task    54 k-point     1 on d001
   Task    55 k-point     1 on d001
  Tasks:    56 split into      8 X      7 BLACS grid
  Calculating block size based on n_basis =         1440 max_nprow =            8 max_npcol =            7
  ScaLAPACK block size set to:           16
  Allocating        0.319 MB for ovlp
  Allocating        0.319 MB for ham
  Allocating        0.319 MB for eigenvec
  Required Scalapack workspace - INTEGER:            1 REAL:             1
  Partitioning the integration grid into batches with parallel hashing+maxmin method.
  | Number of batches:     7296
  | Maximal batch size:     200
  | Minimal batch size:       3
  | Average batch size:     109.984
  | Standard deviation of batch sizes:      23.999

  Integration load balanced across     56 MPI tasks.
  Work distribution over tasks is as follows:
  Task      0 has      14433 integration points.
  Task      1 has      14366 integration points.
  Task      2 has      14238 integration points.
  Task      3 has      14399 integration points.
  Task      4 has      14380 integration points.
  Task      5 has      14321 integration points.
  Task      6 has      14266 integration points.
  Task      7 has      14427 integration points.
  Task      8 has      14402 integration points.
  Task      9 has      14203 integration points.
  Task     10 has      14398 integration points.
  Task     11 has      14320 integration points.
  Task     12 has      14295 integration points.
  Task     13 has      14295 integration points.
  Task     14 has      14471 integration points.
  Task     15 has      14340 integration points.
  Task     16 has      14303 integration points.
  Task     17 has      14388 integration points.
  Task     18 has      14252 integration points.
  Task     19 has      14318 integration points.
  Task     20 has      14281 integration points.
  Task     21 has      14429 integration points.
  Task     22 has      14329 integration points.
  Task     23 has      14198 integration points.
  Task     24 has      14394 integration points.
  Task     25 has      14327 integration points.
  Task     26 has      14273 integration points.
  Task     27 has      14266 integration points.
  Task     28 has      14439 integration points.
  Task     29 has      14307 integration points.
  Task     30 has      14288 integration points.
  Task     31 has      14381 integration points.
  Task     32 has      14326 integration points.
  Task     33 has      14350 integration points.
  Task     34 has      14265 integration points.
  Task     35 has      14403 integration points.
  Task     36 has      14326 integration points.
  Task     37 has      14290 integration points.
  Task     38 has      14412 integration points.
  Task     39 has      14287 integration points.
  Task     40 has      14346 integration points.
  Task     41 has      14179 integration points.
  Task     42 has      14403 integration points.
  Task     43 has      14352 integration points.
  Task     44 has      14235 integration points.
  Task     45 has      14368 integration points.
  Task     46 has      14305 integration points.
  Task     47 has      14347 integration points.
  Task     48 has      14288 integration points.
  Task     49 has      14391 integration points.
  Task     50 has      14409 integration points.
  Task     51 has      14221 integration points.
  Task     52 has      14378 integration points.
  Task     53 has      14342 integration points.
  Task     54 has      14353 integration points.
  Task     55 has      14137 integration points.
  Initializing partition tables, free-atom densities, potentials, etc. across the integration grid (initialize_grid_storage).
  | initialize_grid_storage: Actual outermost partition radius vs. multipole_radius_free
  | (-- VB: in principle, multipole_radius_free should be larger, hence this output)
  | Species        1: Confinement radius =              6.000000000000000 AA, multipole_radius_free =              6.071692442739658 AA.
  | Species        1: outer_partition_radius set to              6.071692442739658 AA .
  | Species        2: Confinement radius =              6.000000000000000 AA, multipole_radius_free =              6.029870734432609 AA.
  | Species        2: outer_partition_radius set to              6.029870734432609 AA .
  | The sparse table of interatomic distances needs     27.2680 kbyte instead of    18.4320 kbyte of memory.
  | Using the partition_type stratmann_smoother will reduce your memory usage.
  | Net number of integration points:   802440
  | of which are non-zero points    :   639269
  Renormalizing the initial density to the exact electron count on the 3D integration grid.
  | Initial density: Formal number of electrons (from input files) :     198.0000000000
  | Integrated number of electrons on 3D grid     :     198.0000529114
  | Charge integration error                      :       0.0000529114
  | Normalization factor for density and gradient :       0.9999997328
  Obtaining max. number of non-zero basis functions in each batch (get_n_compute_maxes).
  | Maximal number of non-zero basis functions:     1000
  Selecting the method for density update.
  Loop over occupied states selected for charge density update.
  Hamiltonian matrix size:
  | Size of matrix non-packed:               1037520
  | Size of matrix packed:          939221
  Allocating        2.488 MB for KS_eigenvector
  use_local_index: Max. local matrix size =       715087
  Task:     0 matrix size:     150282
  Task:     1 matrix size:     397064
  Task:     2 matrix size:     497975
  Task:     3 matrix size:     204480
  Task:     4 matrix size:     254960
  Task:     5 matrix size:     655265
  Task:     6 matrix size:     709307
  Task:     7 matrix size:     346039
  Task:     8 matrix size:     208008
  Task:     9 matrix size:     239086
  Task:    10 matrix size:     396075
  Task:    11 matrix size:     568052
  Task:    12 matrix size:     708142
  Task:    13 matrix size:     715087
  Task:    14 matrix size:     457841
  Task:    15 matrix size:     235869
  Task:    16 matrix size:     268747
  Task:    17 matrix size:     603919
  Task:    18 matrix size:     623568
  Task:    19 matrix size:     209628
  Task:    20 matrix size:     230853
  Task:    21 matrix size:     210276
  Task:    22 matrix size:     214631
  Task:    23 matrix size:     188045
  Task:    24 matrix size:     644230
  Task:    25 matrix size:     653707
  Task:    26 matrix size:     441489
  Task:    27 matrix size:     309398
  Task:    28 matrix size:     163279
  Task:    29 matrix size:     535611
  Task:    30 matrix size:     595265
  Task:    31 matrix size:     290430
  Task:    32 matrix size:     546297
  Task:    33 matrix size:     399442
  Task:    34 matrix size:     236356
  Task:    35 matrix size:     445111
  Task:    36 matrix size:     674076
  Task:    37 matrix size:     666858
  Task:    38 matrix size:     218138
  Task:    39 matrix size:     120225
  Task:    40 matrix size:     225137
  Task:    41 matrix size:     165585
  Task:    42 matrix size:     709152
  Task:    43 matrix size:     404368
  Task:    44 matrix size:     154278
  Task:    45 matrix size:     572169
  Task:    46 matrix size:     610209
  Task:    47 matrix size:     489060
  Task:    48 matrix size:     271427
  Task:    49 matrix size:     669285
  Task:    50 matrix size:     608248
  Task:    51 matrix size:     481595
  Task:    52 matrix size:     201231
  Task:    53 matrix size:     170802
  Task:    54 matrix size:     210288
  Task:    55 matrix size:      93084
  Integrating Hamiltonian matrix: batch-based integration.
  Time summed over all CPUs for integration: real work      138.597 s, elapsed      280.758 s
  Time get_set_sparse_local_matrix_scalapack:     0.014991 s
  Start compute_balanced_batch_distribution
  Done load balancing, time needed:      0.008 s
  Integrating overlap matrix with loadbalancing
  Time summed over all CPUs for integration: real work       38.968 s, elapsed       45.269 s
  Time get_set_full_local_matrix_scalapack:     0.015733 s

  Updating Kohn-Sham eigenvalues and eigenvectors using ELSI and the ELPA eigensolver.
  Overlap matrix is not singular
  | Lowest and highest eigenvalues :  0.12E+02,  0.88E-04
  Finished singularity check of overlap matrix
  | Time :     0.085 s
  Finished Cholesky decomposition
  | Time :     0.019 s
  Finished transformation to standard eigenproblem
  | Time :     0.014 s
  Starting ELPA eigensolver
  Finished solving standard eigenproblem
  | Time :     0.086 s
  Finished back-transformation of eigenvectors
  | Time :     0.004 s

  Obtaining occupation numbers and chemical potential using ELSI.
  | Chemical potential (Fermi level):    -8.12051918 eV
  Writing Kohn-Sham eigenvalues.

  State    Occupation    Eigenvalue [Ha]    Eigenvalue [eV]
      1       2.00000         -10.175030         -276.87665
      2       2.00000         -10.175016         -276.87628
      3       2.00000         -10.174541         -276.86335
      4       2.00000         -10.174534         -276.86316
      5       2.00000         -10.173670         -276.83963
      6       2.00000         -10.173427         -276.83303
      7       2.00000         -10.172899         -276.81866
      8       2.00000         -10.172882         -276.81821
      9       2.00000         -10.172388         -276.80477
     10       2.00000         -10.172276         -276.80172
     11       2.00000         -10.172223         -276.80027
     12       2.00000         -10.171905         -276.79163
     13       2.00000         -10.171089         -276.76942
     14       2.00000         -10.170449         -276.75199
     15       2.00000         -10.170423         -276.75129
     16       2.00000         -10.170080         -276.74195
     17       2.00000         -10.169618         -276.72940
     18       2.00000         -10.169409         -276.72369
     19       2.00000         -10.168697         -276.70433
     20       2.00000         -10.168318         -276.69402
     21       2.00000         -10.165626         -276.62075
     22       2.00000         -10.165051         -276.60510
     23       2.00000         -10.164017         -276.57698
     24       2.00000         -10.163926         -276.57451
     25       2.00000         -10.163299         -276.55744
     26       2.00000         -10.163141         -276.55314
     27       2.00000         -10.161729         -276.51471
     28       2.00000         -10.161034         -276.49580
     29       2.00000         -10.159548         -276.45538
     30       2.00000         -10.158021         -276.41382
     31       2.00000          -1.019835          -27.75112
     32       2.00000          -1.008531          -27.44352
     33       2.00000          -0.998901          -27.18148
     34       2.00000          -0.989139          -26.91584
     35       2.00000          -0.969209          -26.37353
     36       2.00000          -0.946749          -25.76235
     37       2.00000          -0.917334          -24.96193
     38       2.00000          -0.915150          -24.90250
     39       2.00000          -0.902257          -24.55167
     40       2.00000          -0.898267          -24.44309
     41       2.00000          -0.884604          -24.07131
     42       2.00000          -0.874513          -23.79671
     43       2.00000          -0.864222          -23.51669
     44       2.00000          -0.860177          -23.40661
     45       2.00000          -0.847548          -23.06296
     46       2.00000          -0.788887          -21.46672
     47       2.00000          -0.779326          -21.20655
     48       2.00000          -0.775840          -21.11167
     49       2.00000          -0.770164          -20.95723
     50       2.00000          -0.745993          -20.29951
     51       2.00000          -0.742705          -20.21002
     52       2.00000          -0.734207          -19.97880
     53       2.00000          -0.732109          -19.92170
     54       2.00000          -0.721005          -19.61955
     55       2.00000          -0.683780          -18.60661
     56       2.00000          -0.677609          -18.43867
     57       2.00000          -0.672395          -18.29681
     58       2.00000          -0.658443          -17.91714
     59       2.00000          -0.649558          -17.67536
     60       2.00000          -0.642416          -17.48102
     61       2.00000          -0.633375          -17.23502
     62       2.00000          -0.627648          -17.07917
     63       2.00000          -0.617643          -16.80691
     64       2.00000          -0.610803          -16.62078
     65       2.00000          -0.606479          -16.50315
     66       2.00000          -0.593034          -16.13727
     67       2.00000          -0.590016          -16.05515
     68       2.00000          -0.584975          -15.91799
     69       2.00000          -0.577350          -15.71048
     70       2.00000          -0.573748          -15.61248
     71       2.00000          -0.571127          -15.54115
     72       2.00000          -0.569270          -15.49063
     73       2.00000          -0.563457          -15.33243
     74       2.00000          -0.557849          -15.17984
     75       2.00000          -0.554279          -15.08270
     76       2.00000          -0.534427          -14.54250
     77       2.00000          -0.531798          -14.47096
     78       2.00000          -0.524839          -14.28159
     79       2.00000          -0.521833          -14.19980
     80       2.00000          -0.518309          -14.10389
     81       2.00000          -0.514431          -13.99838
     82       2.00000          -0.509851          -13.87374
     83       2.00000          -0.508008          -13.82360
     84       2.00000          -0.499829          -13.60105
     85       2.00000          -0.496105          -13.49972
     86       2.00000          -0.492716          -13.40749
     87       2.00000          -0.489149          -13.31041
     88       2.00000          -0.480948          -13.08726
     89       2.00000          -0.472080          -12.84594
     90       2.00000          -0.451588          -12.28833
     91       2.00000          -0.432220          -11.76131
     92       2.00000          -0.429873          -11.69744
     93       2.00000          -0.415888          -11.31688
     94       2.00000          -0.414106          -11.26839
     95       2.00000          -0.403346          -10.97560
     96       2.00000          -0.391101          -10.64240
     97       2.00000          -0.377352          -10.26828
     98       2.00000          -0.369450          -10.05324
     99       2.00000          -0.348950           -9.49541
    100       0.00000          -0.260944           -7.10064
    101       0.00000          -0.243633           -6.62960
    102       0.00000          -0.236188           -6.42700
    103       0.00000          -0.224971           -6.12178
    104       0.00000          -0.211096           -5.74422
    105       0.00000          -0.193971           -5.27823
    106       0.00000          -0.188575           -5.13139
    107       0.00000          -0.176601           -4.80555
    108       0.00000          -0.172413           -4.69158
    109       0.00000          -0.147645           -4.01763
    110       0.00000          -0.111187           -3.02556
    111       0.00000          -0.079012           -2.15004
    112       0.00000          -0.072358           -1.96895
    113       0.00000          -0.069990           -1.90452
    114       0.00000          -0.066838           -1.81876
    115       0.00000          -0.061460           -1.67242
    116       0.00000          -0.056196           -1.52917
    117       0.00000          -0.052209           -1.42068
    118       0.00000          -0.047581           -1.29474
    119       0.00000          -0.039437           -1.07312
    120       0.00000          -0.032142           -0.87462
    121       0.00000          -0.030977           -0.84293
    122       0.00000          -0.024086           -0.65540
    123       0.00000          -0.021057           -0.57299
    124       0.00000          -0.017223           -0.46865
    125       0.00000          -0.014438           -0.39287
    126       0.00000          -0.011715           -0.31877
    127       0.00000          -0.009284           -0.25263
    128       0.00000          -0.008788           -0.23912
    129       0.00000          -0.002068           -0.05628
    130       0.00000          -0.000927           -0.02524
    131       0.00000           0.001805            0.04913
    132       0.00000           0.003701            0.10072
    133       0.00000           0.015840            0.43104
    134       0.00000           0.021024            0.57209
    135       0.00000           0.023008            0.62607
    136       0.00000           0.026287            0.71532
    137       0.00000           0.030423            0.82787
    138       0.00000           0.033515            0.91200
    139       0.00000           0.036097            0.98225
    140       0.00000           0.037682            1.02537
    141       0.00000           0.040838            1.11125
    142       0.00000           0.044943            1.22297
    143       0.00000           0.049420            1.34479
    144       0.00000           0.049850            1.35650
    145       0.00000           0.051069            1.38967
    146       0.00000           0.055105            1.49950
    147       0.00000           0.056612            1.54049
    148       0.00000           0.060947            1.65847
    149       0.00000           0.063603            1.73072
    150       0.00000           0.065388            1.77929
    151       0.00000           0.068044            1.85156
    152       0.00000           0.072143            1.96312
    153       0.00000           0.075138            2.04461
    154       0.00000           0.079779            2.17090
    155       0.00000           0.081492            2.21750
    156       0.00000           0.083720            2.27814
    157       0.00000           0.085918            2.33796
    158       0.00000           0.089247            2.42855
    159       0.00000           0.093370            2.54071
    160       0.00000           0.095390            2.59569
    161       0.00000           0.097860            2.66290
    162       0.00000           0.100322            2.72991
    163       0.00000           0.103407            2.81384
    164       0.00000           0.105124            2.86057
    165       0.00000           0.109070            2.96795
    166       0.00000           0.111016            3.02091
    167       0.00000           0.112139            3.05147
    168       0.00000           0.115282            3.13699
    169       0.00000           0.117751            3.20416
    170       0.00000           0.122606            3.33628
    171       0.00000           0.125672            3.41970
    172       0.00000           0.129506            3.52403
    173       0.00000           0.131303            3.57293
    174       0.00000           0.136007            3.70093
    175       0.00000           0.139012            3.78270
    176       0.00000           0.140054            3.81105
    177       0.00000           0.148292            4.03524
    178       0.00000           0.149403            4.06546
    179       0.00000           0.150355            4.09136
    180       0.00000           0.153582            4.17918
    181       0.00000           0.158396            4.31017
    182       0.00000           0.158703            4.31854
    183       0.00000           0.161750            4.40143
    184       0.00000           0.163728            4.45527
    185       0.00000           0.170296            4.63399
    186       0.00000           0.173040            4.70866
    187       0.00000           0.173825            4.73003
    188       0.00000           0.178002            4.84369
    189       0.00000           0.178560            4.85886
    190       0.00000           0.180371            4.90815
    191       0.00000           0.184317            5.01553
    192       0.00000           0.185717            5.05363
    193       0.00000           0.188864            5.13925
    194       0.00000           0.192373            5.23472
    195       0.00000           0.193551            5.26679
    196       0.00000           0.198045            5.38908
    197       0.00000           0.199488            5.42833
    198       0.00000           0.206162            5.60995
    199       0.00000           0.208535            5.67452
    200       0.00000           0.210272            5.72180
    201       0.00000           0.211783            5.76291
    202       0.00000           0.215212            5.85621
    203       0.00000           0.220959            6.01260
    204       0.00000           0.226284            6.15749
    205       0.00000           0.232579            6.32879
    206       0.00000           0.234038            6.36850
    207       0.00000           0.238246            6.48301
    208       0.00000           0.243803            6.63421
    209       0.00000           0.247488            6.73449
    210       0.00000           0.250244            6.80948
    211       0.00000           0.253265            6.89170
    212       0.00000           0.258855            7.04381
    213       0.00000           0.261308            7.11055
    214       0.00000           0.263885            7.18066
    215       0.00000           0.267591            7.28153
    216       0.00000           0.272950            7.42736

  Highest occupied state (VBM) at     -9.49541108 eV
  | Occupation number:      2.00000000

  Lowest unoccupied state (CBM) at    -7.10064066 eV
  | Occupation number:      0.00000000

  Overall HOMO-LUMO gap:      2.39477042 eV.
  Calculating total energy contributions from superposition of free atom densities.

  Total energy components:
  | Sum of eigenvalues            :        -699.38877826 Ha      -19031.33696020 eV
  | XC energy correction          :        -165.42252794 Ha       -4501.37601275 eV
  | XC potential correction       :         212.48696949 Ha        5782.06462815 eV
  | Free-atom electrostatic energy:        -502.66581715 Ha      -13678.23282560 eV
  | Hartree energy correction     :           0.00000000 Ha           0.00000000 eV
  | Entropy correction            :           0.00000000 Ha           0.00000000 eV
  | ---------------------------
  | Total energy                  :       -1154.99015386 Ha      -31428.88117041 eV
  | Total energy, T -> 0          :       -1154.99015386 Ha      -31428.88117041 eV  <-- do not rely on this value for anything but (periodic) metals
  | Electronic free energy        :       -1154.99015386 Ha      -31428.88117041 eV

  Derived energy quantities:
  | Kinetic energy                :        1144.36759228 Ha       31139.82656276 eV
  | Electrostatic energy          :       -2133.93521820 Ha      -58067.33172041 eV
  | Energy correction for multipole
  | error in Hartree potential    :           0.00000000 Ha           0.00000000 eV
  | Sum of eigenvalues per atom                           :        -396.48618667 eV
  | Total energy (T->0) per atom                          :        -654.76835772 eV  <-- do not rely on this value for anything but (periodic) metals
  | Electronic free energy per atom                       :        -654.76835772 eV
  Initialize hartree_potential_storage
  Max. number of atoms included in rho_multipole:           48

  End scf initialization - timings             :  max(cpu_time)    wall_clock(cpu1)
  | Time for scf. initialization               :        7.723 s           7.781 s
  | Boundary condition initialization          :        0.001 s           0.003 s
  | Integration                                :        5.877 s           5.883 s
  | Solution of K.-S. eqns.                    :        0.222 s           0.241 s
  | Grid partitioning                          :        0.720 s           0.725 s
  | Preloading free-atom quantities on grid    :        0.014 s           0.017 s
  | Free-atom superposition energy             :        0.066 s           0.066 s
  | Total energy evaluation                    :        0.001 s           0.004 s

  Partial memory accounting:
  | Current value for overall tracked memory usage on task 0  :           4.049 MB
  | Peak value for overall tracked memory usage on task 0     :          27.675 MB after allocating zora_vector2
  | Largest tracked array allocation on task 0 so far         :           8.000 MB  when allocating hamiltonian_shell
  Note:  These values currently only include a subset of arrays which are explicitly tracked.
  The "true" memory usage will be greater.
------------------------------------------------------------

------------------------------------------------------------
          Begin self-consistency iteration #    1

  Date     :  20210620, Time     :  172450.248
------------------------------------------------------------
  Evaluating new KS density.
  Integration grid: deviation in total charge (<rho> - N_e) =   1.136868E-13
  Pulay mixing of updated and previous charge densities.

  Evaluating partitioned Hartree potential by multipole expansion.
  | Analytical far-field extrapolation by fixed multipoles:
  | Hartree multipole sum: apparent total charge =   0.438451E-04
  Summing up the Hartree potential with load balancing.
  Time summed over all CPUs for potential: real work       24.828 s, elapsed       42.727 s
  | RMS charge density error from multipole expansion :   0.130992E-01

  Start compute_balanced_batch_distribution
  Done load balancing, time needed:      0.007 s
  Integrating Hamiltonian matrix: batch-based integration with load balancing
  Time summed over all CPUs for integration: real work      153.295 s, elapsed      170.171 s
  Time get_set_full_local_matrix_scalapack:     0.016158 s
  Start compute_balanced_batch_distribution
  Done load balancing, time needed:      0.007 s

  Updating Kohn-Sham eigenvalues and eigenvectors using ELSI and the ELPA eigensolver.
  Finished transformation to standard eigenproblem
  | Time :     0.016 s
  Starting ELPA eigensolver
  Finished solving standard eigenproblem
  | Time :     0.085 s
  Finished back-transformation of eigenvectors
  | Time :     0.003 s

  Obtaining occupation numbers and chemical potential using ELSI.
  | Chemical potential (Fermi level):    -5.94181303 eV
  Writing Kohn-Sham eigenvalues.

  State    Occupation    Eigenvalue [Ha]    Eigenvalue [eV]
      1       2.00000         -10.005075         -272.25194
      2       2.00000         -10.002774         -272.18934
      3       2.00000          -9.990798         -271.86345
      4       2.00000          -9.989044         -271.81571
      5       2.00000          -9.987168         -271.76466
      6       2.00000          -9.986939         -271.75845
      7       2.00000          -9.986267         -271.74015
      8       2.00000          -9.982813         -271.64617
      9       2.00000          -9.977309         -271.49639
     10       2.00000          -9.976957         -271.48681
     11       2.00000          -9.966350         -271.19819
     12       2.00000          -9.965221         -271.16747
     13       2.00000          -9.958004         -270.97108
     14       2.00000          -9.956875         -270.94035
     15       2.00000          -9.950836         -270.77603
     16       2.00000          -9.950240         -270.75981
     17       2.00000          -9.949498         -270.73961
     18       2.00000          -9.949332         -270.73509
     19       2.00000          -9.949289         -270.73393
     20       2.00000          -9.947400         -270.68253
     21       2.00000          -9.947275         -270.67911
     22       2.00000          -9.945999         -270.64439
     23       2.00000          -9.944521         -270.60420
     24       2.00000          -9.942790         -270.55707
     25       2.00000          -9.942397         -270.54639
     26       2.00000          -9.942065         -270.53736
     27       2.00000          -9.941734         -270.52834
     28       2.00000          -9.941275         -270.51584
     29       2.00000          -9.940995         -270.50824
     30       2.00000          -9.940421         -270.49263
     31       2.00000          -0.884581          -24.07067
     32       2.00000          -0.860813          -23.42392
     33       2.00000          -0.847755          -23.06858
     34       2.00000          -0.833966          -22.69336
     35       2.00000          -0.820003          -22.31343
     36       2.00000          -0.803326          -21.85960
     37       2.00000          -0.772916          -21.03213
     38       2.00000          -0.770037          -20.95378
     39       2.00000          -0.758822          -20.64861
     40       2.00000          -0.753190          -20.49534
     41       2.00000          -0.738108          -20.08494
     42       2.00000          -0.726670          -19.77369
     43       2.00000          -0.715382          -19.46653
     44       2.00000          -0.713968          -19.42806
     45       2.00000          -0.702320          -19.11109
     46       2.00000          -0.649658          -17.67808
     47       2.00000          -0.640197          -17.42065
     48       2.00000          -0.637355          -17.34332
     49       2.00000          -0.627615          -17.07829
     50       2.00000          -0.607379          -16.52763
     51       2.00000          -0.603894          -16.43278
     52       2.00000          -0.600156          -16.33108
     53       2.00000          -0.592829          -16.13170
     54       2.00000          -0.578980          -15.75485
     55       2.00000          -0.549220          -14.94503
     56       2.00000          -0.545313          -14.83872
     57       2.00000          -0.538407          -14.65080
     58       2.00000          -0.522723          -14.22400
     59       2.00000          -0.513853          -13.98266
     60       2.00000          -0.504445          -13.72664
     61       2.00000          -0.496049          -13.49819
     62       2.00000          -0.487350          -13.26147
     63       2.00000          -0.479406          -13.04529
     64       2.00000          -0.471633          -12.83378
     65       2.00000          -0.471004          -12.81668
     66       2.00000          -0.456756          -12.42897
     67       2.00000          -0.451884          -12.29640
     68       2.00000          -0.451010          -12.27262
     69       2.00000          -0.444470          -12.09463
     70       2.00000          -0.442317          -12.03606
     71       2.00000          -0.438628          -11.93567
     72       2.00000          -0.435237          -11.84341
     73       2.00000          -0.433079          -11.78467
     74       2.00000          -0.429397          -11.68450
     75       2.00000          -0.423854          -11.53365
     76       2.00000          -0.411068          -11.18572
     77       2.00000          -0.403340          -10.97543
     78       2.00000          -0.402215          -10.94481
     79       2.00000          -0.388944          -10.58371
     80       2.00000          -0.388269          -10.56533
     81       2.00000          -0.383739          -10.44208
     82       2.00000          -0.375976          -10.23083
     83       2.00000          -0.374797          -10.19874
     84       2.00000          -0.369110          -10.04399
     85       2.00000          -0.363536           -9.89233
     86       2.00000          -0.359483           -9.78202
     87       2.00000          -0.354640           -9.65025
     88       2.00000          -0.350779           -9.54519
     89       2.00000          -0.343487           -9.34675
     90       2.00000          -0.333376           -9.07161
     91       2.00000          -0.309610           -8.42491
     92       2.00000          -0.304543           -8.28704
     93       2.00000          -0.293275           -7.98041
     94       2.00000          -0.290337           -7.90048
     95       2.00000          -0.278669           -7.58298
     96       2.00000          -0.266312           -7.24672
     97       2.00000          -0.251396           -6.84082
     98       2.00000          -0.245629           -6.68391
     99       2.00000          -0.227832           -6.19961
    100       0.00000          -0.142478           -3.87702
    101       0.00000          -0.123477           -3.35997
    102       0.00000          -0.114291           -3.11003
    103       0.00000          -0.105077           -2.85928
    104       0.00000          -0.090020           -2.44957
    105       0.00000          -0.072068           -1.96107
    106       0.00000          -0.067353           -1.83276
    107       0.00000          -0.054446           -1.48155
    108       0.00000          -0.053106           -1.44510
    109       0.00000          -0.028736           -0.78194
    110       0.00000          -0.028109           -0.76488
    111       0.00000          -0.024325           -0.66193
    112       0.00000          -0.023526           -0.64018
    113       0.00000          -0.014397           -0.39177
    114       0.00000          -0.012609           -0.34311
    115       0.00000          -0.000395           -0.01074
    116       0.00000           0.002806            0.07636
    117       0.00000           0.009929            0.27017
    118       0.00000           0.013501            0.36739
    119       0.00000           0.016721            0.45501
    120       0.00000           0.025594            0.69645
    121       0.00000           0.026812            0.72960
    122       0.00000           0.034312            0.93369
    123       0.00000           0.036395            0.99035
    124       0.00000           0.041021            1.11623
    125       0.00000           0.044850            1.22043
    126       0.00000           0.045110            1.22750
    127       0.00000           0.054276            1.47692
    128       0.00000           0.064018            1.74201
    129       0.00000           0.065927            1.79396
    130       0.00000           0.071382            1.94241
    131       0.00000           0.075812            2.06295
    132       0.00000           0.077686            2.11393
    133       0.00000           0.078471            2.13529
    134       0.00000           0.081640            2.22152
    135       0.00000           0.086592            2.35628
    136       0.00000           0.091053            2.47767
    137       0.00000           0.094229            2.56410
    138       0.00000           0.105517            2.87126
    139       0.00000           0.109769            2.98697
    140       0.00000           0.112061            3.04933
    141       0.00000           0.113910            3.09965
    142       0.00000           0.118623            3.22789
    143       0.00000           0.121781            3.31382
    144       0.00000           0.126720            3.44823
    145       0.00000           0.128657            3.50095
    146       0.00000           0.130455            3.54985
    147       0.00000           0.132182            3.59685
    148       0.00000           0.135101            3.67629
    149       0.00000           0.137435            3.73979
    150       0.00000           0.140429            3.82126
    151       0.00000           0.141938            3.86232
    152       0.00000           0.143941            3.91683
    153       0.00000           0.147966            4.02637
    154       0.00000           0.150001            4.08174
    155       0.00000           0.152350            4.14566
    156       0.00000           0.153131            4.16690
    157       0.00000           0.155866            4.24134
    158       0.00000           0.157793            4.29376
    159       0.00000           0.161214            4.38685
    160       0.00000           0.165871            4.51358
    161       0.00000           0.168563            4.58682
    162       0.00000           0.170466            4.63861
    163       0.00000           0.174027            4.73552
    164       0.00000           0.177144            4.82034
    165       0.00000           0.178848            4.86670
    166       0.00000           0.181694            4.94414
    167       0.00000           0.186845            5.08432
    168       0.00000           0.190222            5.17620
    169       0.00000           0.190753            5.19067
    170       0.00000           0.192192            5.22982
    171       0.00000           0.197091            5.36311
    172       0.00000           0.200955            5.46825
    173       0.00000           0.202967            5.52302
    174       0.00000           0.204846            5.57414
    175       0.00000           0.206890            5.62976
    176       0.00000           0.209592            5.70328
    177       0.00000           0.215637            5.86777
    178       0.00000           0.216358            5.88741
    179       0.00000           0.220262            5.99364
    180       0.00000           0.223175            6.07290
    181       0.00000           0.225042            6.12372
    182       0.00000           0.227929            6.20225
    183       0.00000           0.230959            6.28471
    184       0.00000           0.233905            6.36487
    185       0.00000           0.235018            6.39515
    186       0.00000           0.238181            6.48123
    187       0.00000           0.240681            6.54927
    188       0.00000           0.246302            6.70223
    189       0.00000           0.252496            6.87076
    190       0.00000           0.252630            6.87443
    191       0.00000           0.257382            7.00372
    192       0.00000           0.262808            7.15137
    193       0.00000           0.264635            7.20110
    194       0.00000           0.267601            7.28180
    195       0.00000           0.270355            7.35673
    196       0.00000           0.273836            7.45146
    197       0.00000           0.275791            7.50466
    198       0.00000           0.276740            7.53047
    199       0.00000           0.280065            7.62094
    200       0.00000           0.286735            7.80247
    201       0.00000           0.288979            7.86353
    202       0.00000           0.293076            7.97499
    203       0.00000           0.296916            8.07951
    204       0.00000           0.298192            8.11422
    205       0.00000           0.303167            8.24960
    206       0.00000           0.312848            8.51302
    207       0.00000           0.313661            8.53516
    208       0.00000           0.315731            8.59149
    209       0.00000           0.319103            8.68324
    210       0.00000           0.320856            8.73092
    211       0.00000           0.323303            8.79752
    212       0.00000           0.330739            8.99987
    213       0.00000           0.333609            9.07796
    214       0.00000           0.340808            9.27386
    215       0.00000           0.345754            9.40846
    216       0.00000           0.347816            9.46456

  Highest occupied state (VBM) at     -6.19961066 eV
  | Occupation number:      2.00000000

  Lowest unoccupied state (CBM) at    -3.87702083 eV
  | Occupation number:      0.00000000

  Overall HOMO-LUMO gap:      2.32258982 eV.

  Total energy components:
  | Sum of eigenvalues            :        -668.30795583 Ha      -18185.58475047 eV
  | XC energy correction          :        -167.51453821 Ha       -4558.30250863 eV
  | XC potential correction       :         215.20251096 Ha        5855.95827119 eV
  | Free-atom electrostatic energy:        -502.66581715 Ha      -13678.23282560 eV
  | Hartree energy correction     :         -30.69356760 Ha        -835.21446965 eV
  | Entropy correction            :           0.00000000 Ha           0.00000000 eV
  | ---------------------------
  | Total energy                  :       -1153.97936783 Ha      -31401.37628316 eV
  | Total energy, T -> 0          :       -1153.97936783 Ha      -31401.37628316 eV  <-- do not rely on this value for anything but (periodic) metals
[...]
     46       2.00000          -0.590864          -16.07822
     47       2.00000          -0.580279          -15.79018
     48       2.00000          -0.577229          -15.70720
     49       2.00000          -0.568491          -15.46943
     50       2.00000          -0.548713          -14.93123
     51       2.00000          -0.542680          -14.76707
     52       2.00000          -0.539172          -14.67163
     53       2.00000          -0.532535          -14.49102
     54       2.00000          -0.518461          -14.10804
     55       2.00000          -0.488886          -13.30326
     56       2.00000          -0.484803          -13.19215
     57       2.00000          -0.477046          -12.98108
     58       2.00000          -0.462756          -12.59224
     59       2.00000          -0.452361          -12.30936
     60       2.00000          -0.443718          -12.07418
     61       2.00000          -0.434349          -11.81923
     62       2.00000          -0.427496          -11.63277
     63       2.00000          -0.416438          -11.33186
     64       2.00000          -0.410815          -11.17883
     65       2.00000          -0.409144          -11.13337
     66       2.00000          -0.396865          -10.79924
     67       2.00000          -0.394397          -10.73210
     68       2.00000          -0.389371          -10.59534
     69       2.00000          -0.383335          -10.43107
     70       2.00000          -0.380744          -10.36057
     71       2.00000          -0.378307          -10.29426
     72       2.00000          -0.376370          -10.24156
     73       2.00000          -0.374884          -10.20111
     74       2.00000          -0.367611          -10.00321
     75       2.00000          -0.362890           -9.87475
     76       2.00000          -0.360691           -9.81489
     77       2.00000          -0.353546           -9.62049
     78       2.00000          -0.347211           -9.44808
     79       2.00000          -0.339468           -9.23739
     80       2.00000          -0.331847           -9.03001
     81       2.00000          -0.326579           -8.88667
     82       2.00000          -0.322914           -8.78693
     83       2.00000          -0.315843           -8.59452
     84       2.00000          -0.312463           -8.50255
     85       2.00000          -0.308717           -8.40061
     86       2.00000          -0.301348           -8.20008
     87       2.00000          -0.294902           -8.02468
     88       2.00000          -0.293684           -7.99155
     89       2.00000          -0.286022           -7.78306
     90       2.00000          -0.277128           -7.54103
     91       2.00000          -0.266682           -7.25680
     92       2.00000          -0.262883           -7.15340
     93       2.00000          -0.250674           -6.82120
     94       2.00000          -0.248943           -6.77407
     95       2.00000          -0.235995           -6.42174
     96       2.00000          -0.223836           -6.09088
     97       2.00000          -0.209046           -5.68844
     98       2.00000          -0.201934           -5.49491
     99       2.00000          -0.181912           -4.95006
    100       0.00000          -0.096395           -2.62303
    101       0.00000          -0.078718           -2.14202
    102       0.00000          -0.070504           -1.91852
    103       0.00000          -0.062231           -1.69340
    104       0.00000          -0.046613           -1.26841
    105       0.00000          -0.029851           -0.81227
    106       0.00000          -0.023399           -0.63671
    107       0.00000          -0.012109           -0.32950
    108       0.00000          -0.010062           -0.27379
    109       0.00000          -0.007168           -0.19505
    110       0.00000          -0.002637           -0.07176
    111       0.00000          -0.002131           -0.05799
    112       0.00000           0.007220            0.19646
    113       0.00000           0.009263            0.25206
    114       0.00000           0.018790            0.51130
    115       0.00000           0.022121            0.60194
    116       0.00000           0.024066            0.65487
    117       0.00000           0.033434            0.90980
    118       0.00000           0.037055            1.00832
    119       0.00000           0.046165            1.25620
    120       0.00000           0.047406            1.28997
    121       0.00000           0.055317            1.50524
    122       0.00000           0.057618            1.56787
    123       0.00000           0.058105            1.58111
    124       0.00000           0.062850            1.71024
    125       0.00000           0.069910            1.90234
    126       0.00000           0.075682            2.05940
    127       0.00000           0.081763            2.22487
    128       0.00000           0.087209            2.37306
    129       0.00000           0.096365            2.62223
    130       0.00000           0.100567            2.73656
    131       0.00000           0.100983            2.74789
    132       0.00000           0.104104            2.83281
    133       0.00000           0.107754            2.93213
    134       0.00000           0.114783            3.12341
    135       0.00000           0.118068            3.21279
    136       0.00000           0.123266            3.35423
    137       0.00000           0.128834            3.50575
    138       0.00000           0.132003            3.59199
    139       0.00000           0.135784            3.69487
    140       0.00000           0.139747            3.80271
    141       0.00000           0.141850            3.85994
    142       0.00000           0.146753            3.99334
    143       0.00000           0.150417            4.09305
    144       0.00000           0.157065            4.27397
    145       0.00000           0.159333            4.33567
    146       0.00000           0.165729            4.50971
    147       0.00000           0.165916            4.51482
    148       0.00000           0.167029            4.54510
    149       0.00000           0.170023            4.62656
    150       0.00000           0.172055            4.68187
    151       0.00000           0.175116            4.76515
    152       0.00000           0.177349            4.82590
    153       0.00000           0.179936            4.89631
    154       0.00000           0.183703            4.99882
    155       0.00000           0.186473            5.07418
    156       0.00000           0.186871            5.08502
    157       0.00000           0.191578            5.21310
    158       0.00000           0.192638            5.24195
    159       0.00000           0.195022            5.30682
    160       0.00000           0.198061            5.38952
    161       0.00000           0.199475            5.42798
    162       0.00000           0.204530            5.56553
    163       0.00000           0.206989            5.63246
    164       0.00000           0.210855            5.73766
    165       0.00000           0.211334            5.75070
    166       0.00000           0.214594            5.83939
    167       0.00000           0.219245            5.96597
    168       0.00000           0.223036            6.06913
    169       0.00000           0.225404            6.13355
    170       0.00000           0.227276            6.18450
    171       0.00000           0.228613            6.22087
    172       0.00000           0.234811            6.38955
    173       0.00000           0.236296            6.42995
    174       0.00000           0.239370            6.51359
    175       0.00000           0.240083            6.53299
    176       0.00000           0.245342            6.67610
    177       0.00000           0.246295            6.70203
    178       0.00000           0.249565            6.79102
    179       0.00000           0.251316            6.83866
    180       0.00000           0.255899            6.96335
    181       0.00000           0.257606            7.00982
    182       0.00000           0.259282            7.05541
    183       0.00000           0.263895            7.18095
    184       0.00000           0.265991            7.23799
    185       0.00000           0.268640            7.31007
    186       0.00000           0.272664            7.41957
    187       0.00000           0.274236            7.46234
    188       0.00000           0.279832            7.61461
    189       0.00000           0.284055            7.72952
    190       0.00000           0.288596            7.85309
    191       0.00000           0.292348            7.95519
    192       0.00000           0.296143            8.05845
    193       0.00000           0.296994            8.08161
    194       0.00000           0.302223            8.22392
    195       0.00000           0.302808            8.23983
    196       0.00000           0.304185            8.27731
    197       0.00000           0.306169            8.33127
    198       0.00000           0.312051            8.49134
    199       0.00000           0.318288            8.66107
    200       0.00000           0.320063            8.70935
    201       0.00000           0.323259            8.79634
    202       0.00000           0.323440            8.80126
    203       0.00000           0.328580            8.94111
    204       0.00000           0.332294            9.04219
    205       0.00000           0.335824            9.13824
    206       0.00000           0.343461            9.34604
    207       0.00000           0.345324            9.39674
    208       0.00000           0.349191            9.50197
    209       0.00000           0.354651            9.65054
    210       0.00000           0.359744            9.78913
    211       0.00000           0.360330            9.80508
    212       0.00000           0.363734            9.89771
    213       0.00000           0.369423           10.05251
    214       0.00000           0.370655           10.08602
    215       0.00000           0.381875           10.39136
    216       0.00000           0.383488           10.43525

  Highest occupied state (VBM) at     -4.95006424 eV
  | Occupation number:      2.00000000

  Lowest unoccupied state (CBM) at    -2.62302808 eV
  | Occupation number:      0.00000000

  Overall HOMO-LUMO gap:      2.32703616 eV.

  Total energy components:
  | Sum of eigenvalues            :        -656.94380351 Ha      -17876.35043219 eV
  | XC energy correction          :        -168.48094277 Ha       -4584.59971464 eV
  | XC potential correction       :         216.43822824 Ha        5889.58384917 eV
  | Free-atom electrostatic energy:        -502.66581715 Ha      -13678.23282560 eV
  | Hartree energy correction     :         -41.93090404 Ha       -1140.99795239 eV
  | Entropy correction            :           0.00000000 Ha           0.00000000 eV
  | ---------------------------
  | Total energy                  :       -1153.58323924 Ha      -31390.59707565 eV
  | Total energy, T -> 0          :       -1153.58323924 Ha      -31390.59707565 eV  <-- do not rely on this value for anything but (periodic) metals
  | Electronic free energy        :       -1153.58323924 Ha      -31390.59707565 eV

  Derived energy quantities:
  | Kinetic energy                :        1150.59572826 Ha       31309.30276564 eV
  | Electrostatic energy          :       -2135.69802472 Ha      -58115.30012665 eV
  | Energy correction for multipole
  | error in Hartree potential    :          -0.14011965 Ha          -3.81284968 eV
  | Sum of eigenvalues per atom                           :        -372.42396734 eV
  | Total energy (T->0) per atom                          :        -653.97077241 eV  <-- do not rely on this value for anything but (periodic) metals
  | Electronic free energy per atom                       :        -653.97077241 eV
  End evaluation of scaled ZORA corrections.
  | Time for scaled ZORA corrections           :        5.538 s           5.539 s
------------------------------------------------------------

  Energy and forces in a compact form:
  | Total energy uncorrected      :         -0.313905970756493E+05 eV
  | Total energy corrected        :         -0.313905970756493E+05 eV  <-- do not rely on this value for anything but (periodic) metals
  | Electronic free energy        :         -0.313905970756493E+05 eV

  ------------------------------------ 
  Start decomposition of the XC Energy 
  ------------------------------------ 
  X and C from original XC functional choice 
  Hartree-Fock Energy :          0.000000000 Ha              0.000000000 eV
  X Energy            :       -161.834194582 Ha          -4403.732494027 eV
  C Energy            :         -6.646748188 Ha           -180.867220618 eV
  Total XC Energy     :       -168.480942770 Ha          -4584.599714645 eV
  ------------------------------------ 
  LDA X and C from self-consistent density 
  X Energy LDA        :       -146.586064233 Ha          -3988.809756187 eV
  C Energy LDA        :        -12.791336790 Ha           -348.069983661 eV
  ------------------------------------ 
  End decomposition of the XC Energy 
  ------------------------------------ 

------------------------------------------------------------

------------------------------------------------------------------------------
  Final output of selected total energy values:

  The following output summarizes some interesting total energy values
  at the end of a run (AFTER all relaxation, molecular dynamics, etc.).

  | Total energy of the DFT / Hartree-Fock s.c.f. calculation      :         -31390.597075649 eV
  | Final zero-broadening corrected energy (caution - metals only) :         -31390.597075649 eV
  | For reference only, the value of 1 Hartree used in FHI-aims is :             27.211384500 eV

  Before relying on these values, please be sure to understand exactly which
  total energy value is referred to by a given number. Different objects may
  all carry the same name 'total energy'. Definitions:

  Total energy of the DFT / Hartree-Fock s.c.f. calculation:
  | Note that this energy does not include ANY quantities calculated after the
  | s.c.f. cycle, in particular not ANY RPA, MP2, etc. many-body perturbation terms.
  | Scalar relativistic effects have been included in the 'scaled ZORA' approximation.

  Final zero-broadening corrected energy:
  | For metallic systems only, a broadening of the occupation numbers at the Fermi
  | level can be extrapolated back to zero broadening by an electron-gas inspired
  | formula. For all systems that are not real metals, this value can be
  | meaningless and should be avoided.

------------------------------------------------------------------------------
  Methods described in the following list of references were used in this FHI-aims run.
  If you publish the results, please make sure to cite these reference if they apply.
  FHI-aims is an academic code, and for our developers (often, Ph.D. students
  and postdocs), scientific credit in the community is essential.
  Thank you for helping us!

  For any use of FHI-aims, please cite:

    Volker Blum, Ralf Gehrke, Felix Hanke, Paula Havu, Ville Havu,
    Xinguo Ren, Karsten Reuter, and Matthias Scheffler
    'Ab initio molecular simulations with numeric atom-centered orbitals'
    Computer Physics Communications 180, 2175-2196 (2009)
    http://dx.doi.org/10.1016/j.cpc.2009.06.022


  The scalable eigensolver library ELPA was used in your run.
  ELPA is essential especially for large systems on hundreds or thousands of CPUs.
  For ELPA, please cite:

    Andreas Marek, Volker Blum, Rainer Johanni, Ville Havu, Bruno Lang,
    Thomas Auckenthaler, Alexander Heinecke, Hans-Joachim Bungartz, and Hermann Lederer,
    'The ELPA Library - Scalable Parallel Eigenvalue Solutions
    for Electronic Structure Theory and Computational Science'
    The Journal of Physics: Condensed Matter 26, 213201 (2014).
    http://dx.doi.org/10.1088/0953-8984/26/21/213201


  The ELSI infrastructure was used in your run to solve the Kohn-Sham electronic structure.
  Please check out http://elsi-interchange.org to learn more.
  If scalability is important for your project, please acknowledge ELSI by citing:

    V. W-z. Yu, F. Corsetti, A. Garcia, W. P. Huhn, M. Jacquelin, W. Jia,
    B. Lange, L. Lin, J. Lu, W. Mi, A. Seifitokaldani, A. Vazquez-Mayagoitia,
    C. Yang, H. Yang, and V. Blum
    'ELSI: A unified software interface for Kohn-Sham electronic structure solvers'
    Computer Physics Communications 222, 267-285 (2018).
    http://dx.doi.org/10.1016/j.cpc.2017.09.007


  For the real-space grid partitioning and parallelization used in this calculation, please cite:

    Ville Havu, Volker Blum, Paula Havu, and Matthias Scheffler,
    'Efficient O(N) integration for all-electron electronic structure calculation'
    'using numerically tabulated basis functions'
    Journal of Computational Physics 228, 8367-8379 (2009).
    http://dx.doi.org/10.1016/j.jcp.2009.08.008

  Of course, there are many other important community references, e.g., those cited in the
  above references. Our list is limited to references that describe implementations in the
  FHI-aims code. The reason is purely practical (length of this list) - please credit others as well.

------------------------------------------------------------
          Leaving FHI-aims.
          Date     :  20210620, Time     :  172623.370

          Computational steps:
          | Number of self-consistency cycles          :           18
          | Number of SCF (re)initializations          :            1

          Detailed time accounting                     :  max(cpu_time)    wall_clock(cpu1)
          | Total time                                 :      101.109 s         101.303 s
          | Preparation time                           :        0.204 s           0.212 s
          | Boundary condition initalization           :        0.001 s           0.003 s
          | Grid partitioning                          :        0.720 s           0.725 s
          | Preloading free-atom quantities on grid    :        0.014 s           0.017 s
          | Free-atom superposition energy             :        0.066 s           0.066 s
          | Total time for integrations                :       58.023 s          58.032 s
          | Total time for solution of K.-S. equations :        2.840 s           2.862 s
          | Total time for density update              :       22.948 s          22.901 s
          | Total time for mixing                      :        0.141 s           0.145 s
          | Total time for Hartree multipole update    :        0.161 s           0.168 s
          | Total time for Hartree multipole sum       :        9.393 s           9.395 s
          | Total time for total energy evaluation     :        0.010 s           0.039 s
          | Total time for scaled ZORA corrections     :        5.538 s           5.539 s

          Partial memory accounting:
          | Residual value for overall tracked memory usage across tasks :     0.000000 MB (should be 0.000000 MB)
          | Peak values for overall tracked memory usage (after allocating zora_vector2):
          |   Minimum:       27.642 MB (on task 56)
          |   Maximum:       34.400 MB (on task  7)
          |   Average:       31.102 MB
          | Largest tracked array allocation (hamiltonian_shell):
          |   Minimum:        8.000 MB (on task  1)
          |   Maximum:        8.000 MB (on task  1)
          |   Average:        8.000 MB
          Note:  These values currently only include a subset of arrays which are explicitly tracked.
          The "true" memory usage will be greater.

          Have a nice day.
------------------------------------------------------------
