  MPI-parallelism will be employed.
------------------------------------------------------------
          Invoking FHI-aims ...
          Version 180607
          Git rev. (modified): 6724847 Fix JSON memory corruption in scf_solver
          Compiled on 2018/06/27 at 16:00:31 on host coe.psc.edu.

          When using FHI-aims, please cite the following reference:

          Volker Blum, Ralf Gehrke, Felix Hanke, Paula Havu,
          Ville Havu, Xinguo Ren, Karsten Reuter, and Matthias Scheffler,
          'Ab Initio Molecular Simulations with Numeric Atom-Centered Orbitals',
          Computer Physics Communications 180, 2175-2196 (2009)

          For any questions about FHI-aims, please visit the aimsclub website
          with its forums and wiki. Contributions to both the forums and the
          wiki are warmly encouraged - they are for you, and everyone is welcome there.

------------------------------------------------------------



  Date     :  20210620, Time     :  173622.919
  Time zero on CPU 1             :   0.351115000000000E+00  s.
  Internal wall clock time zero  :           393442582.919  s.

  FHI-aims created a unique identifier for this run for later identification
  aims_uuid : 4FED74C4-317D-4A73-A270-684A8545699A

  Using       56 parallel tasks.
  Task        0 on host d001 reporting.
  Task        1 on host d001 reporting.
  Task        2 on host d001 reporting.
  Task        3 on host d001 reporting.
  Task        4 on host d001 reporting.
  Task        5 on host d001 reporting.
  Task        6 on host d001 reporting.
  Task        7 on host d001 reporting.
  Task        8 on host d001 reporting.
  Task        9 on host d001 reporting.
  Task       10 on host d001 reporting.
  Task       11 on host d001 reporting.
  Task       12 on host d001 reporting.
  Task       13 on host d001 reporting.
  Task       14 on host d001 reporting.
  Task       15 on host d001 reporting.
  Task       16 on host d001 reporting.
  Task       17 on host d001 reporting.
  Task       18 on host d001 reporting.
  Task       19 on host d001 reporting.
  Task       20 on host d001 reporting.
  Task       21 on host d001 reporting.
  Task       22 on host d001 reporting.
  Task       23 on host d001 reporting.
  Task       24 on host d001 reporting.
  Task       25 on host d001 reporting.
  Task       26 on host d001 reporting.
  Task       27 on host d001 reporting.
  Task       28 on host d001 reporting.
  Task       29 on host d001 reporting.
  Task       30 on host d001 reporting.
  Task       31 on host d001 reporting.
  Task       32 on host d001 reporting.
  Task       33 on host d001 reporting.
  Task       34 on host d001 reporting.
  Task       35 on host d001 reporting.
  Task       36 on host d001 reporting.
  Task       37 on host d001 reporting.
  Task       38 on host d001 reporting.
  Task       39 on host d001 reporting.
  Task       40 on host d001 reporting.
  Task       41 on host d001 reporting.
  Task       42 on host d001 reporting.
  Task       43 on host d001 reporting.
  Task       44 on host d001 reporting.
  Task       45 on host d001 reporting.
  Task       46 on host d001 reporting.
  Task       47 on host d001 reporting.
  Task       48 on host d001 reporting.
  Task       49 on host d001 reporting.
  Task       50 on host d001 reporting.
  Task       51 on host d001 reporting.
  Task       52 on host d001 reporting.
  Task       53 on host d001 reporting.
  Task       54 on host d001 reporting.
  Task       55 on host d001 reporting.

  Performing system and environment tests:
  *** Environment variable OMP_NUM_THREADS is not set
  *** For performance reasons you might want to set it to 1
  | Stacksize not measured: no C compiler
  | Checking for scalapack...
  | Testing pdtran()...
  | All pdtran() tests passed.

  Obtaining array dimensions for all initial allocations:
  
  -----------------------------------------------------------------------
  Parsing control.in (first pass over file, find array dimensions only).
  The contents of control.in will be repeated verbatim below
  unless switched off by setting 'verbatim_writeout .false.' .
  in the first line of control.in .
  -----------------------------------------------------------------------
  
  #===============================================================================
  # FHI-aims file: ./Runs/es/control.in
  # Created using the Atomic Simulation Environment (ASE)
  # Mon Jan 13 16:04:38 2020
  #===============================================================================
  xc                                 pbe
  relativistic                       zora scalar 1e-12
  occupation_type                    gaussian 0.0001
  load_balancing                     .true.
  KS_method                          scalapack_fast
  mixer                              pulay
  n_max_pulay                        5
  charge_mix_param                   0.4
  sc_accuracy_etot                   1e-6
  sc_accuracy_eev                    1e-4
  sc_accuracy_rho                    1e-6
  sc_iter_limit                      100
  prodbas_threshold                  1e-4
  basis_threshold                    1e-5
  override_illconditioning           .true.
  use_logsbt                         .true.
  spin                               none
  charge                             0
  #===============================================================================
  
  ################################################################################
  #
  #  FHI-aims code project
  # Volker Blum, Fritz Haber Institute Berlin, 2009
  #
  #  Suggested "tight" defaults for H atom (to be pasted into control.in file)
  #
  ################################################################################
    species        H
  #     global species definitions
      nucleus             1
      mass                1.00794
  #
      l_hartree           6
  #
      cut_pot             4.0  2.0  1.0
      basis_dep_cutoff    1e-4
  #
      radial_base         24 7.0
      radial_multiplier   2
      angular_grids       specified
        division   0.1930   50
        division   0.3175  110
        division   0.4293  194
        division   0.5066  302
        division   0.5626  434
  #      division   0.5922  590
  #      division   0.6227  974
  #      division   0.6868 1202
  #      outer_grid  770
        outer_grid  434
  ################################################################################
  #
  #  Definition of "minimal" basis
  #
  ################################################################################
  #     valence basis states
      valence      1  s   1.
  #     ion occupancy
      ion_occ      1  s   0.5
  ################################################################################
  #
  #  Suggested additional basis functions. For production calculations,
  #  uncomment them one after another (the most important basis functions are
  #  listed first).
  #
  #  Basis constructed for dimers: 0.5 A, 0.7 A, 1.0 A, 1.5 A, 2.5 A
  #
  ################################################################################
  #  "First tier" - improvements: -1014.90 meV to -62.69 meV
       hydro 2 s 2.1
       hydro 2 p 3.5
  #  "Second tier" - improvements: -12.89 meV to -1.83 meV
       hydro 1 s 0.85
       hydro 2 p 3.7
       hydro 2 s 1.2
       hydro 3 d 7
  #  "Third tier" - improvements: -0.25 meV to -0.12 meV
  #     hydro 4 f 11.2
  #     hydro 3 p 4.8
  #     hydro 4 d 9
  #     hydro 3 s 3.2
  ################################################################################
  #
  # For methods that use the localized form of the "resolution of identity" for
  # the two-electron Coulomb operator (RI_method LVL), particularly Hartree-Fock and
  # hybrid density functional calculations, the highest accuracy can be obtained by
  # uncommenting the line beginning with "for_aux"  below, thus adding an extra g radial
  # function to the construction of the product basis set for the expansion.
  # See Ref. New J. Phys. 17, 093020 (2015) for more information, particularly Figs. 1 and 6.
  #
  ################################################################################
  #
  # for_aux hydro 5 g 6.0
  ################################################################################
  #
  #  FHI-aims code project
  # Volker Blum, Fritz Haber Institute Berlin, 2009
  #
  #  Suggested "tight" defaults for C atom (to be pasted into control.in file)
  #
  ################################################################################
    species        C
  #     global species definitions
      nucleus             6
      mass                12.0107
  #
      l_hartree           6
  #
      cut_pot             4.0  2.0  1.0
      basis_dep_cutoff    1e-4
  #
      radial_base         34 7.0
      radial_multiplier   2
      angular_grids specified
        division   0.2187   50
        division   0.4416  110
        division   0.6335  194
        division   0.7727  302
        division   0.8772  434
  #      division   0.9334  590
  #      division   0.9924  770
  #      division   1.0230  974
  #      division   1.5020 1202
  #     outer_grid  974
        outer_grid  434
  ################################################################################
  #
  #  Definition of "minimal" basis
  #
  ################################################################################
  #     valence basis states
      valence      2  s   2.
      valence      2  p   2.
  #     ion occupancy
      ion_occ      2  s   1.
      ion_occ      2  p   1.
  ################################################################################
  #
  #  Suggested additional basis functions. For production calculations,
  #  uncomment them one after another (the most important basis functions are
  #  listed first).
  #
  #  Constructed for dimers: 1.0 A, 1.25 A, 1.5 A, 2.0 A, 3.0 A
  #
  ################################################################################
  #  "First tier" - improvements: -1214.57 meV to -155.61 meV
       hydro 2 p 1.7
       hydro 3 d 6
       hydro 2 s 4.9
  #  "Second tier" - improvements: -67.75 meV to -5.23 meV
       hydro 4 f 9.8
       hydro 3 p 5.2
       hydro 3 s 4.3
       hydro 5 g 14.4
       hydro 3 d 6.2
  #  "Third tier" - improvements: -2.43 meV to -0.60 meV
  #     hydro 2 p 5.6
  #     hydro 2 s 1.4
  #     hydro 3 d 4.9
  #     hydro 4 f 11.2
  #  "Fourth tier" - improvements: -0.39 meV to -0.18 meV
  #     hydro 2 p 2.1
  #     hydro 5 g 16.4
  #     hydro 4 d 13.2
  #     hydro 3 s 13.6
  #     hydro 4 f 17.6
  #  Further basis functions - improvements: -0.08 meV and below
  #     hydro 3 s 2
  #     hydro 3 p 6
  #     hydro 4 d 20
  ################################################################################
  #
  # For methods that use the localized form of the "resolution of identity" for
  # the two-electron Coulomb operator (RI_method LVL), particularly Hartree-Fock and
  # hybrid density functional calculations, the highest accuracy can be obtained by
  # uncommenting the line beginning with "for_aux"  below, thus adding an extra g radial
  # function to the construction of the product basis set for the expansion.
  # See Ref. New J. Phys. 17, 093020 (2015) for more information, particularly Figs. 1 and 6.
  #
  ################################################################################
  #
  # for_aux hydro 5 g 6.0
  
  -----------------------------------------------------------------------
  Completed first pass over input file control.in .
  -----------------------------------------------------------------------
  
  
  -----------------------------------------------------------------------
  Parsing geometry.in (first pass over file, find array dimensions only).
  The contents of geometry.in will be repeated verbatim below
  unless switched off by setting 'verbatim_writeout .false.' .
  in the first line of geometry.in .
  -----------------------------------------------------------------------
  
  #=======================================================
  # FHI-aims file: geometry.in
  # Created using the Atomic Simulation Environment (ASE)
  # Sun Jun 20 15:47:02 2021
  #=======================================================
  atom 24.6657839999999986 20.2585030000000010 43.6818609999999978 H
  atom 24.3112339999999989 19.3132759999999983 43.2695399999999992 C
  atom 23.2295000000000016 19.3387850000000014 42.3587300000000013 C
  atom 24.8658430000000017 18.1361759999999990 43.6490440000000035 C
  atom 22.7551169999999985 18.1192160000000015 41.8112670000000008 C
  atom 22.5753670000000000 20.5452680000000001 42.0017769999999970 C
  atom 24.4290470000000006 16.9230879999999999 43.0904740000000004 C
  atom 25.6712330000000009 18.1210659999999990 44.3812939999999969 H
  atom 21.6154870000000017 18.1494299999999988 40.9689529999999991 C
  atom 23.4196570000000008 16.8957259999999998 42.1569440000000029 C
  atom 21.4912080000000003 20.5357279999999989 41.1810040000000015 C
  atom 22.9465879999999984 21.4841699999999989 42.4167910000000035 H
  atom 24.9223239999999997 15.9930269999999997 43.3700120000000027 H
  atom 21.2274940000000001 17.2114310000000010 40.5746389999999977 H
  atom 20.9951019999999993 19.3249460000000006 40.6725860000000026 C
  atom 23.0742019999999997 15.6456379999999999 41.4390000000000001 C
  atom 20.9831789999999998 21.4664029999999997 40.9361359999999976 H
  atom 20.1113050000000015 19.3264460000000007 40.0337400000000017 H
  atom 22.5556640000000002 14.4821270000000002 41.9349640000000008 C
  atom 23.3291259999999987 15.4729500000000009 39.9874590000000012 C
  atom 22.4168349999999990 13.5160099999999996 40.8147949999999966 C
  atom 22.0846160000000005 14.2373930000000009 43.3178399999999968 C
  atom 22.9127399999999994 14.1724899999999998 39.6655119999999997 C
  atom 23.8218980000000009 16.2634410000000003 38.9822360000000003 C
  atom 21.9013290000000005 12.2565279999999994 40.6601330000000019 C
  atom 21.1420139999999996 15.0660790000000002 43.8738850000000014 C
  atom 22.5805199999999999 13.1275340000000007 44.0862729999999985 C
  atom 22.9346649999999990 13.6253460000000004 38.3812560000000005 C
  atom 23.8767619999999994 15.7292620000000003 37.6697070000000025 C
  atom 24.1671510000000005 17.2806110000000004 39.1604600000000005 H
  atom 21.8944590000000012 11.6778739999999992 39.3667889999999971 C
  atom 21.4856510000000007 11.6988489999999992 41.5002589999999998 H
  atom 20.6449980000000011 14.8404030000000002 45.1695849999999979 C
  atom 20.7582640000000005 15.9035340000000005 43.2941110000000009 H
  atom 22.0619830000000015 12.9110899999999997 45.3925759999999983 C
  atom 23.5913240000000002 12.2645260000000000 43.6120189999999965 C
  atom 22.3833909999999996 12.3222749999999994 38.2615989999999968 C
  atom 23.4563349999999993 14.4643060000000006 37.3635790000000014 C
  atom 24.2550559999999997 16.3704110000000007 36.8726640000000003 H
  atom 21.4854489999999991 10.6769049999999996 39.2447749999999971 H
  atom 19.9069010000000013 15.5254069999999995 45.5795510000000021 H
  atom 21.0833100000000009 13.7884820000000001 45.9053690000000003 C
  atom 22.5531380000000006 11.8155420000000007 46.1431690000000003 C
  atom 24.0364059999999995 11.2231790000000000 44.3705229999999986 C
  atom 24.0302420000000012 12.4463919999999995 42.6342280000000002 H
  atom 22.3366100000000003 11.8406889999999994 37.2863320000000016 H
  atom 23.5222130000000007 14.0967479999999998 36.3401799999999966 H
  atom 20.7074409999999993 13.6202980000000000 46.9149680000000018 H
  atom 22.1546370000000010 11.6583290000000002 47.1467099999999988 H
  atom 23.5079659999999997 10.9919270000000004 45.6495609999999985 C
  atom 24.8274480000000004 10.5799029999999998 43.9807530000000000 H
  atom 23.8718110000000010 10.1563160000000003 46.2463339999999974 H
  
  -----------------------------------------------------------------------
  Completed first pass over input file geometry.in .
  -----------------------------------------------------------------------
  

  Basic array size parameters:
  | Number of species                 :        2
  | Number of atoms                   :       52
  | Max. basis fn. angular momentum   :        4
  | Max. atomic/ionic basis occupied n:        2
  | Max. number of basis fn. types    :        2
  | Max. radial fns per species/type  :        8
  | Max. logarithmic grid size        :     1277
  | Max. radial integration grid size :       69
  | Max. angular integration grid size:      434
  | Max. angular grid division number :        8
  | Radial grid for Hartree potential :     1277
  | Number of spin channels           :        1

------------------------------------------------------------
          Reading file control.in.
------------------------------------------------------------
  XC: Using PBE gradient-corrected functionals.
  Scalar relativistic treatment of kinetic energy: ZORA.
  Threshold value for ZORA:   0.100000E-11
  Occupation type: Gaussian broadening, width =   0.100000E-03 eV.
  Since 'load_balancing .true.' is present in control.in, automatically turning on 'use_local_index .true.'.
  Using load balancing for integrations.
  Kohn-Sham electronic structure solved by the ELSI library.
  Using pulay charge density mixing.
  Pulay mixing - number of memorized iterations:    5
  Charge density mixing - mixing parameter:     0.4000
  Convergence accuracy of total energy:  0.1000E-05
  Convergence accuracy of sum of eigenvalues:  0.1000E-03
  Convergence accuracy of self-consistent charge density:  0.1000E-05
  Maximum number of s.-c. iterations  :   100
  * Ignoring prodbas_threshold
  Threshold for basis singularities:  0.1000E-04
  override_illconditioning: Explicitly overriding any built-in checks for an ill-conditioned overlap matrix.
  *** WARNING: If you use this flag, you should really know what you are doing.
  *** DO NOT keep this flag set by default in all your control.in files.
  Using 1D integrations for auxiliary 2-center integrals.
  Spin treatment: No spin polarisation.
  Charge =   0.000000E+00: Neutral system requested explicitly.
 
  Reading configuration options for species H                   .
  | Found nuclear charge :   1.0000
  | Found atomic mass :    1.00794000000000      amu
  | Found l_max for Hartree potential  :   6
  | Found cutoff potl. onset [A], width [A], scale factor :    4.00000    2.00000    1.00000
  | Threshold for basis-dependent cutoff potential is   0.100000E-03
  | Found data for basic radial integration grid :    24 points, outermost radius =    7.000 A
  | Found multiplier for basic radial grid :   2
  | Found angular grid specification: user-specified.
  | Specified grid contains     6 separate shells.
  | Check grid settings after all constraints further below.
  | Found free-atom valence shell :  1 s   1.000
  | No ionic wave fns used. Skipping ion_occ.
  | Found hydrogenic basis function :  2 s   2.100
  | Found hydrogenic basis function :  2 p   3.500
  | Found hydrogenic basis function :  1 s   0.850
  | Found hydrogenic basis function :  2 p   3.700
  | Found hydrogenic basis function :  2 s   1.200
  | Found hydrogenic basis function :  3 d   7.000
  Species H                   : Missing cutoff potential type.
  Defaulting to exp(1/x)/(1-x)^2 type cutoff potential.
  Species H : No 'logarithmic' tag. Using default grid for free atom:
  | Default logarithmic grid data [bohr] : 0.1000E-03 0.1000E+03 0.1012E+01
  Species H : On-site basis accuracy parameter (for Gram-Schmidt orthonormalisation) not specified.
  Using default value basis_acc =  0.1000000E-03.
  Species H                   : Using default innermost maximum threshold i_radial=  2 for radial functions.
  Species H                   : Default cutoff onset for free atom density etc. : 0.40000000E+01 AA.
  Species H                   : Basic radial grid will be enhanced according to radial_multiplier =   2, to contain    49 grid points.
 
  Reading configuration options for species C                   .
  | Found nuclear charge :   6.0000
  | Found atomic mass :    12.0107000000000      amu
  | Found l_max for Hartree potential  :   6
  | Found cutoff potl. onset [A], width [A], scale factor :    4.00000    2.00000    1.00000
  | Threshold for basis-dependent cutoff potential is   0.100000E-03
  | Found data for basic radial integration grid :    34 points, outermost radius =    7.000 A
  | Found multiplier for basic radial grid :   2
  | Found angular grid specification: user-specified.
  | Specified grid contains     6 separate shells.
  | Check grid settings after all constraints further below.
  | Found free-atom valence shell :  2 s   2.000
  | Found free-atom valence shell :  2 p   2.000
  | No ionic wave fns used. Skipping ion_occ.
  | No ionic wave fns used. Skipping ion_occ.
  | Found hydrogenic basis function :  2 p   1.700
  | Found hydrogenic basis function :  3 d   6.000
  | Found hydrogenic basis function :  2 s   4.900
  | Found hydrogenic basis function :  4 f   9.800
  | Found hydrogenic basis function :  3 p   5.200
  | Found hydrogenic basis function :  3 s   4.300
  | Found hydrogenic basis function :  5 g  14.400
  | Found hydrogenic basis function :  3 d   6.200
  Species C                   : Missing cutoff potential type.
  Defaulting to exp(1/x)/(1-x)^2 type cutoff potential.
  Species C : No 'logarithmic' tag. Using default grid for free atom:
  | Default logarithmic grid data [bohr] : 0.1000E-03 0.1000E+03 0.1012E+01
  Species C : On-site basis accuracy parameter (for Gram-Schmidt orthonormalisation) not specified.
  Using default value basis_acc =  0.1000000E-03.
  Species C                   : Using default innermost maximum threshold i_radial=  2 for radial functions.
  Species C                   : Default cutoff onset for free atom density etc. : 0.40000000E+01 AA.
  Species C                   : Basic radial grid will be enhanced according to radial_multiplier =   2, to contain    69 grid points.
 
  Finished reading input file 'control.in'. Consistency checks are next.
 
  MPI_IN_PLACE appears to work with this MPI implementation.
  | Keeping use_mpi_in_place .true. (see manual).
  Target number of points in a grid batch is not set. Defaulting to  100
  Method for grid partitioning is not set. Defaulting to parallel hash+maxmin partitioning.
  Batch size limit is not set. Defaulting to    200
  By default, will store active basis functions for each batch.
  If in need of memory, prune_basis_once .false. can be used to disable this option.
  communication_type for Hartree potential was not specified.
  Defaulting to calc_hartree .
  Pulay mixer: Number of initial linear mixing iterations not set.
  Defaulting to    0 iterations.
  Work space size for distributed Hartree potential not set.
  Defaulting to   0.200000E+03 MB.
  Algorithm-dependent basis array size parameters:
  | n_max_pulay                         :        5
  Presetting      1001 iterations before the initial mixing cycle
  is restarted anyway using the sc_init_iter criterion / keyword.
  Presetting a factor      1.000 between actual scf density residual
  and density convergence criterion sc_accuracy_rho below which sc_init_iter
  takes no effect.
  Calculation of forces was not defined in control.in. No forces will be calculated.
  Geometry relaxation not requested: no relaxation will be performed.
  No accuracy limit for integral partition fn. given. Defaulting to  0.1000E-14.
  No threshold value for u(r) in integrations given. Defaulting to  0.1000E-05.
  No accuracy for occupation numbers given. Defaulting to  0.1000E-12.
  No threshold value for occupation numbers given. Defaulting to  0.0000E+00.
  No accuracy for fermi level given. Defaulting to  0.1000E-19.
  Maximum # of iterations to find E_F not set. Defaulting to  200.
  Will not use alltoall communication since running on < 1024 CPUs.
  partition_type (choice of integration weights) for integrals was not specified.
  | Using a version of the partition function of Stratmann and coworkers ('stratmann_sparse').
  | At each grid point, the set of atoms used to build the partition table is smoothly restricted to
  | only those atoms whose free-atom density would be non-zero at that grid point.
  Partitioning for Hartree potential was not defined. Using partition_type for integrals.
  | Adjusted default value of keyword multip_moments_threshold to:       0.10000000E-11
  | This value may affect high angular momentum components of the Hartree potential in periodic systems.
  No q(lm)/r^(l+1) cutoff set for long-range Hartree potential.
  | Using default value of  0.100000E-09 .
  | Verify using the multipole_threshold keyword.
  Defaulting to new monopole extrapolation.
  Density update method: automatic selection selected.
 * Warning: use_local_index and/or load_balancing needs packed_matrix_format = index
 * Changing the default setting to packed_matrix_format = index
------------------------------------------------------------


------------------------------------------------------------
          Reading geometry description geometry.in.
------------------------------------------------------------
  Input structure read successfully.
  The structure contains       52 atoms,  and a total of        212.000 electrons.

  Input geometry:
  | No unit cell requested.
  | Atomic structure:
  |       Atom                x [A]            y [A]            z [A]
  |    1: Species H            24.66578400       20.25850300       43.68186100
  |    2: Species C            24.31123400       19.31327600       43.26954000
  |    3: Species C            23.22950000       19.33878500       42.35873000
  |    4: Species C            24.86584300       18.13617600       43.64904400
  |    5: Species C            22.75511700       18.11921600       41.81126700
  |    6: Species C            22.57536700       20.54526800       42.00177700
  |    7: Species C            24.42904700       16.92308800       43.09047400
  |    8: Species H            25.67123300       18.12106600       44.38129400
  |    9: Species C            21.61548700       18.14943000       40.96895300
  |   10: Species C            23.41965700       16.89572600       42.15694400
  |   11: Species C            21.49120800       20.53572800       41.18100400
  |   12: Species H            22.94658800       21.48417000       42.41679100
  |   13: Species H            24.92232400       15.99302700       43.37001200
  |   14: Species H            21.22749400       17.21143100       40.57463900
  |   15: Species C            20.99510200       19.32494600       40.67258600
  |   16: Species C            23.07420200       15.64563800       41.43900000
  |   17: Species H            20.98317900       21.46640300       40.93613600
  |   18: Species H            20.11130500       19.32644600       40.03374000
  |   19: Species C            22.55566400       14.48212700       41.93496400
  |   20: Species C            23.32912600       15.47295000       39.98745900
  |   21: Species C            22.41683500       13.51601000       40.81479500
  |   22: Species C            22.08461600       14.23739300       43.31784000
  |   23: Species C            22.91274000       14.17249000       39.66551200
  |   24: Species C            23.82189800       16.26344100       38.98223600
  |   25: Species C            21.90132900       12.25652800       40.66013300
  |   26: Species C            21.14201400       15.06607900       43.87388500
  |   27: Species C            22.58052000       13.12753400       44.08627300
  |   28: Species C            22.93466500       13.62534600       38.38125600
  |   29: Species C            23.87676200       15.72926200       37.66970700
  |   30: Species H            24.16715100       17.28061100       39.16046000
  |   31: Species C            21.89445900       11.67787400       39.36678900
  |   32: Species H            21.48565100       11.69884900       41.50025900
  |   33: Species C            20.64499800       14.84040300       45.16958500
  |   34: Species H            20.75826400       15.90353400       43.29411100
  |   35: Species C            22.06198300       12.91109000       45.39257600
  |   36: Species C            23.59132400       12.26452600       43.61201900
  |   37: Species C            22.38339100       12.32227500       38.26159900
  |   38: Species C            23.45633500       14.46430600       37.36357900
  |   39: Species H            24.25505600       16.37041100       36.87266400
  |   40: Species H            21.48544900       10.67690500       39.24477500
  |   41: Species H            19.90690100       15.52540700       45.57955100
  |   42: Species C            21.08331000       13.78848200       45.90536900
  |   43: Species C            22.55313800       11.81554200       46.14316900
  |   44: Species C            24.03640600       11.22317900       44.37052300
  |   45: Species H            24.03024200       12.44639200       42.63422800
  |   46: Species H            22.33661000       11.84068900       37.28633200
  |   47: Species H            23.52221300       14.09674800       36.34018000
  |   48: Species H            20.70744100       13.62029800       46.91496800
  |   49: Species H            22.15463700       11.65832900       47.14671000
  |   50: Species C            23.50796600       10.99192700       45.64956100
  |   51: Species H            24.82744800       10.57990300       43.98075300
  |   52: Species H            23.87181100       10.15631600       46.24633400
  |

  | The smallest distance between any two atoms is         1.08710602 AA.
  |
  | The first atom of this pair is atom number                     36 .
  | The second atom of this pair is atom number                    45 .

  Number of empty states per atom not set in control.in - providing a guess from actual geometry.
  | Total number of empty states used during s.c.f. cycle:      126
  If you use a very high smearing, use empty_states (per atom!) in control.in to increase this value.

  Structure-dependent array size parameters: 
  | Maximum number of distinct radial functions  :       18
  | Maximum number of basis functions            :     1548
  | Number of Kohn-Sham states (occupied + empty):      232
------------------------------------------------------------

------------------------------------------------------------
          Preparing all fixed parts of the calculation.
------------------------------------------------------------
  Determining machine precision:
    2.225073858507201E-308
  Setting up grids for atomic and cluster calculations.

  Creating wave function, potential, and density for free atoms.

  Species: H

  List of occupied orbitals and eigenvalues:
    n    l              occ      energy [Ha]    energy [eV]
    1    0           1.0000        -0.238386        -6.4868


  Species: C

  List of occupied orbitals and eigenvalues:
    n    l              occ      energy [Ha]    energy [eV]
    1    0           2.0000       -10.049212      -273.4530
    2    0           2.0000        -0.504761       -13.7352
    2    1           2.0000        -0.193631        -5.2690

  Creating fixed part of basis set: Ionic, confined, hydrogenic.
 
  H                    hydrogenic:
 
  List of hydrogenic basis orbitals: 
    n    l      effective z      eigenvalue [eV]  inner max. [A]     outer max. [A]     outer radius [A]   
    2    0         2.100000       -14.9965           0.193243           1.317208           5.373006
    2    1         3.500000       -41.6672           0.602369           0.602369           4.056063
    1    0         0.850000        -9.8292           0.624871           0.624871           5.373006
    2    1         3.700000       -46.5653           0.573622           0.573622           3.910002
    2    0         1.200000        -4.5995           0.334980           2.228188           5.505995
    3    2         7.000000       -74.0753           0.680699           0.680699           3.769201
 
 
  C                    hydrogenic:
 
  List of hydrogenic basis orbitals: 
    n    l      effective z      eigenvalue [eV]  inner max. [A]     outer max. [A]     outer radius [A]   
    2    1         1.700000        -9.8152           1.245706           1.245706           5.401630
    3    2         6.000000       -54.4226           0.792453           0.792453           4.178599
    2    0         4.900000       -81.6681           0.082559           0.562749           3.353238
    4    3         9.800000       -81.6681           0.863254           0.863254           4.028125
    3    1         5.200000       -40.8774           0.305389           1.215618           4.898362
    3    0         4.300000       -27.9508           0.091041           1.610311           5.401630
    5    4        14.400000      -112.8510           0.917666           0.917666           3.883070
    3    2         6.200000       -58.1113           0.763917           0.763917           4.077671
 

  Adding cutoff potential to free-atom effective potential.
  Creating atomic-like basis functions for current effective potential.

  Species H                   :

  List of atomic basis orbitals and eigenvalues:
    n    l      energy [Ha]    energy [eV]    outer radius [A]
    1    0        -0.238386        -6.4868       5.373006


  Species C                   :

  List of atomic basis orbitals and eigenvalues:
    n    l      energy [Ha]    energy [eV]    outer radius [A]
    1    0       -10.049212      -273.4530       1.934409
    2    0        -0.504761       -13.7352       5.271162
    2    1        -0.193631        -5.2690       5.401630

  Assembling full basis from fixed parts.
  | Species H :   atomic orbital   1 s accepted.
  | Species H :    hydro orbital   2 s accepted.
  | Species H :    hydro orbital   1 s accepted.
  | Species H :    hydro orbital   2 s accepted.
  | Species H :    hydro orbital   2 p accepted.
  | Species H :    hydro orbital   2 p accepted.
  | Species H :    hydro orbital   3 d accepted.
  | Species C :   atomic orbital   1 s accepted.
  | Species C :    hydro orbital   2 s accepted.
  | Species C :   atomic orbital   2 s accepted.
  | Species C :    hydro orbital   3 s accepted.
  | Species C :    hydro orbital   3 p accepted.
  | Species C :   atomic orbital   2 p accepted.
  | Species C :    hydro orbital   2 p accepted.
  | Species C :    hydro orbital   3 d accepted.
  | Species C :    hydro orbital   3 d accepted.
  | Species C :    hydro orbital   4 f accepted.
  | Species C :    hydro orbital   5 g accepted.
 
  Basis size parameters after reduction:
  | Total number of radial functions:       18
  | Total number of basis functions :     1548
 
  Per-task memory consumption for arrays in subroutine allocate_ext:
  |           4.449576MB.
  Testing on-site integration grid accuracy.
  |  Species  Function  <phi|h_atom|phi> (log., in eV)  <phi|h_atom|phi> (rad., in eV)
           1        1                 -6.4870767962                 -6.4871688290
           1        2                 13.5032046589                 13.5028982997
           1        3                 32.8195184817                 32.8119941656
           1        4                 33.8513856511                 33.7670005767 ***
           1        5                 28.8544614965                 28.8544615203
           1        6                 59.6326952547                 59.6327656460
           1        7                 60.2719308513                 60.2719305949
           2        8               -273.4529726040               -273.4529710464
           2        9                -10.7721037319                -10.7721022101
           2       10                 17.6044132601                 17.6044162063
           2       11                 53.7706460658                 53.7706913770
           2       12                 15.0973290362                 15.0973256030
           2       13                  3.8545134692                  3.8545724687
           2       14                 12.1156992592                 12.1182024431
           2       15                 29.4352039302                 29.4352041816
           2       16                 54.8741144708                 54.8740268729
           2       17                 59.3556032049                 59.3556031382
           2       18                 93.4551837154                 93.4551838009
 * Note: Onsite integrals marked "***" above are less accurate than
 * onsite_accuracy_threshold =    0.03000 eV. Usually, this is harmless.
 * When in doubt, tighten the "radial" and/or "radial_multiplier" flags to check.

  Preparing densities etc. for the partition functions (integrals / Hartree potential).

  Preparations completed.
  max(cpu_time)          :      0.195 s.
  Wall clock time (cpu1) :      0.191 s.
------------------------------------------------------------

------------------------------------------------------------
          Begin self-consistency loop: Initialization.

          Date     :  20210620, Time     :  173623.322
------------------------------------------------------------

  Initializing index lists of integration centers etc. from given atomic structure:
  | Number of centers in hartree potential         :        52
  | Number of centers in hartree multipole         :        52
  | Number of centers in electron density summation:        52
  | Number of centers in basis integrals           :        52
  | Number of centers in integrals                 :        52
  | Number of centers in hamiltonian               :        52
  * Using 56 tasks for Scalapack Eigenvalue solver.
  Detailed listing of tasks and assigned k-points:
  (for non-periodic systems, the "k-point" denotes an internal label only)
   Task     0 k-point     1 on d001
   Task     1 k-point     1 on d001
   Task     2 k-point     1 on d001
   Task     3 k-point     1 on d001
   Task     4 k-point     1 on d001
   Task     5 k-point     1 on d001
   Task     6 k-point     1 on d001
   Task     7 k-point     1 on d001
   Task     8 k-point     1 on d001
   Task     9 k-point     1 on d001
   Task    10 k-point     1 on d001
   Task    11 k-point     1 on d001
   Task    12 k-point     1 on d001
   Task    13 k-point     1 on d001
   Task    14 k-point     1 on d001
   Task    15 k-point     1 on d001
   Task    16 k-point     1 on d001
   Task    17 k-point     1 on d001
   Task    18 k-point     1 on d001
   Task    19 k-point     1 on d001
   Task    20 k-point     1 on d001
   Task    21 k-point     1 on d001
   Task    22 k-point     1 on d001
   Task    23 k-point     1 on d001
   Task    24 k-point     1 on d001
   Task    25 k-point     1 on d001
   Task    26 k-point     1 on d001
   Task    27 k-point     1 on d001
   Task    28 k-point     1 on d001
   Task    29 k-point     1 on d001
   Task    30 k-point     1 on d001
   Task    31 k-point     1 on d001
   Task    32 k-point     1 on d001
   Task    33 k-point     1 on d001
   Task    34 k-point     1 on d001
   Task    35 k-point     1 on d001
   Task    36 k-point     1 on d001
   Task    37 k-point     1 on d001
   Task    38 k-point     1 on d001
   Task    39 k-point     1 on d001
   Task    40 k-point     1 on d001
   Task    41 k-point     1 on d001
   Task    42 k-point     1 on d001
   Task    43 k-point     1 on d001
   Task    44 k-point     1 on d001
   Task    45 k-point     1 on d001
   Task    46 k-point     1 on d001
   Task    47 k-point     1 on d001
   Task    48 k-point     1 on d001
   Task    49 k-point     1 on d001
   Task    50 k-point     1 on d001
   Task    51 k-point     1 on d001
   Task    52 k-point     1 on d001
   Task    53 k-point     1 on d001
   Task    54 k-point     1 on d001
   Task    55 k-point     1 on d001
  Tasks:    56 split into      8 X      7 BLACS grid
  Calculating block size based on n_basis =         1548 max_nprow =            8 max_npcol =            7
  ScaLAPACK block size set to:           16
  Allocating        0.366 MB for ovlp
  Allocating        0.366 MB for ham
  Allocating        0.366 MB for eigenvec
  Required Scalapack workspace - INTEGER:            1 REAL:             1
  Partitioning the integration grid into batches with parallel hashing+maxmin method.
  | Number of batches:     7836
  | Maximal batch size:     200
  | Minimal batch size:       2
  | Average batch size:     110.706
  | Standard deviation of batch sizes:      28.442

  Integration load balanced across     56 MPI tasks.
  Work distribution over tasks is as follows:
  Task      0 has      15601 integration points.
  Task      1 has      15546 integration points.
  Task      2 has      15449 integration points.
  Task      3 has      15530 integration points.
  Task      4 has      15507 integration points.
  Task      5 has      15559 integration points.
  Task      6 has      15380 integration points.
  Task      7 has      15513 integration points.
  Task      8 has      15594 integration points.
  Task      9 has      15395 integration points.
  Task     10 has      15618 integration points.
  Task     11 has      15416 integration points.
  Task     12 has      15439 integration points.
  Task     13 has      15369 integration points.
  Task     14 has      15567 integration points.
  Task     15 has      15524 integration points.
  Task     16 has      15488 integration points.
  Task     17 has      15502 integration points.
  Task     18 has      15487 integration points.
  Task     19 has      15525 integration points.
  Task     20 has      15395 integration points.
  Task     21 has      15534 integration points.
  Task     22 has      15542 integration points.
  Task     23 has      15460 integration points.
  Task     24 has      15536 integration points.
  Task     25 has      15398 integration points.
  Task     26 has      15510 integration points.
  Task     27 has      15365 integration points.
  Task     28 has      15569 integration points.
  Task     29 has      15524 integration points.
  Task     30 has      15473 integration points.
  Task     31 has      15553 integration points.
  Task     32 has      15460 integration points.
  Task     33 has      15476 integration points.
  Task     34 has      15420 integration points.
  Task     35 has      15647 integration points.
  Task     36 has      15509 integration points.
  Task     37 has      15437 integration points.
  Task     38 has      15505 integration points.
  Task     39 has      15450 integration points.
  Task     40 has      15492 integration points.
  Task     41 has      15381 integration points.
  Task     42 has      15515 integration points.
  Task     43 has      15532 integration points.
  Task     44 has      15480 integration points.
  Task     45 has      15589 integration points.
  Task     46 has      15473 integration points.
  Task     47 has      15529 integration points.
  Task     48 has      15402 integration points.
  Task     49 has      15549 integration points.
  Task     50 has      15517 integration points.
  Task     51 has      15489 integration points.
  Task     52 has      15496 integration points.
  Task     53 has      15414 integration points.
  Task     54 has      15509 integration points.
  Task     55 has      15357 integration points.
  Initializing partition tables, free-atom densities, potentials, etc. across the integration grid (initialize_grid_storage).
  | initialize_grid_storage: Actual outermost partition radius vs. multipole_radius_free
  | (-- VB: in principle, multipole_radius_free should be larger, hence this output)
  | Species        1: Confinement radius =              6.000000000000000 AA, multipole_radius_free =              6.071692442739658 AA.
  | Species        1: outer_partition_radius set to              6.071692442739658 AA .
  | Species        2: Confinement radius =              6.000000000000000 AA, multipole_radius_free =              6.029870734432609 AA.
  | Species        2: outer_partition_radius set to              6.029870734432609 AA .
  | The sparse table of interatomic distances needs     32.0360 kbyte instead of    21.6320 kbyte of memory.
  | Using the partition_type stratmann_smoother will reduce your memory usage.
  | Net number of integration points:   867496
  | of which are non-zero points    :   688588
  Renormalizing the initial density to the exact electron count on the 3D integration grid.
  | Initial density: Formal number of electrons (from input files) :     212.0000000000
  | Integrated number of electrons on 3D grid     :     212.0001388069
  | Charge integration error                      :       0.0001388069
  | Normalization factor for density and gradient :       0.9999993453
  Obtaining max. number of non-zero basis functions in each batch (get_n_compute_maxes).
  | Maximal number of non-zero basis functions:     1086
  Selecting the method for density update.
  Loop over occupied states selected for charge density update.
  Hamiltonian matrix size:
  | Size of matrix non-packed:               1198926
  | Size of matrix packed:         1102855
  Allocating        2.873 MB for KS_eigenvector
  use_local_index: Max. local matrix size =       905701
  Task:     0 matrix size:     133903
  Task:     1 matrix size:     213389
  Task:     2 matrix size:     384468
  Task:     3 matrix size:     369752
  Task:     4 matrix size:     491581
  Task:     5 matrix size:     821857
  Task:     6 matrix size:     894242
  Task:     7 matrix size:     191269
  Task:     8 matrix size:     140185
  Task:     9 matrix size:     289081
  Task:    10 matrix size:     459512
  Task:    11 matrix size:     651209
  Task:    12 matrix size:     823647
  Task:    13 matrix size:     782317
  Task:    14 matrix size:     651710
  Task:    15 matrix size:     349007
  Task:    16 matrix size:     408390
  Task:    17 matrix size:     759044
  Task:    18 matrix size:     819433
  Task:    19 matrix size:     176715
  Task:    20 matrix size:     242556
  Task:    21 matrix size:     225989
  Task:    22 matrix size:     831292
  Task:    23 matrix size:     731311
  Task:    24 matrix size:     369034
  Task:    25 matrix size:     536228
  Task:    26 matrix size:     596173
  Task:    27 matrix size:     292904
  Task:    28 matrix size:     437868
  Task:    29 matrix size:     642604
  Task:    30 matrix size:     699845
  Task:    31 matrix size:     191888
  Task:    32 matrix size:     212226
  Task:    33 matrix size:     194310
  Task:    34 matrix size:     316845
  Task:    35 matrix size:     343576
  Task:    36 matrix size:     732364
  Task:    37 matrix size:     664858
  Task:    38 matrix size:     179700
  Task:    39 matrix size:      95266
  Task:    40 matrix size:     411520
  Task:    41 matrix size:     391865
  Task:    42 matrix size:     467487
  Task:    43 matrix size:     817175
  Task:    44 matrix size:     584620
  Task:    45 matrix size:     716616
  Task:    46 matrix size:     212218
  Task:    47 matrix size:     619422
  Task:    48 matrix size:     401803
  Task:    49 matrix size:     905701
  Task:    50 matrix size:     786266
  Task:    51 matrix size:     633944
  Task:    52 matrix size:     379446
  Task:    53 matrix size:     302129
  Task:    54 matrix size:     305917
  Task:    55 matrix size:     275508
  Integrating Hamiltonian matrix: batch-based integration.
  Time summed over all CPUs for integration: real work      163.384 s, elapsed      323.333 s
  Time get_set_sparse_local_matrix_scalapack:     0.017476 s
  Start compute_balanced_batch_distribution
  Done load balancing, time needed:      0.009 s
  Integrating overlap matrix with loadbalancing
  Time summed over all CPUs for integration: real work       46.838 s, elapsed       52.411 s
  Time get_set_full_local_matrix_scalapack:     0.019426 s

  Updating Kohn-Sham eigenvalues and eigenvectors using ELSI and the ELPA eigensolver.
  Overlap matrix is not singular
  | Lowest and highest eigenvalues :  0.13E+02,  0.95E-04
  Finished singularity check of overlap matrix
  | Time :     0.093 s
  Finished Cholesky decomposition
  | Time :     0.021 s
  Finished transformation to standard eigenproblem
  | Time :     0.016 s
  Starting ELPA eigensolver
  Finished solving standard eigenproblem
  | Time :     0.099 s
  Finished back-transformation of eigenvectors
  | Time :     0.004 s

  Obtaining occupation numbers and chemical potential using ELSI.
  | Chemical potential (Fermi level):    -8.27168450 eV
  Writing Kohn-Sham eigenvalues.

  State    Occupation    Eigenvalue [Ha]    Eigenvalue [eV]
      1       2.00000         -10.175253         -276.88272
      2       2.00000         -10.174845         -276.87161
      3       2.00000         -10.174402         -276.85957
      4       2.00000         -10.174310         -276.85706
      5       2.00000         -10.173945         -276.84712
      6       2.00000         -10.173255         -276.82836
      7       2.00000         -10.173239         -276.82791
      8       2.00000         -10.173229         -276.82764
      9       2.00000         -10.173006         -276.82159
     10       2.00000         -10.172935         -276.81964
     11       2.00000         -10.172598         -276.81047
     12       2.00000         -10.171769         -276.78790
     13       2.00000         -10.171598         -276.78326
     14       2.00000         -10.171523         -276.78122
     15       2.00000         -10.171043         -276.76816
     16       2.00000         -10.170604         -276.75621
     17       2.00000         -10.170589         -276.75581
     18       2.00000         -10.170093         -276.74232
     19       2.00000         -10.169826         -276.73505
     20       2.00000         -10.169693         -276.73144
     21       2.00000         -10.169686         -276.73124
     22       2.00000         -10.169108         -276.71551
     23       2.00000         -10.168750         -276.70576
     24       2.00000         -10.167614         -276.67484
     25       2.00000         -10.167271         -276.66551
     26       2.00000         -10.167229         -276.66438
     27       2.00000         -10.164719         -276.59607
     28       2.00000         -10.164577         -276.59220
     29       2.00000         -10.162415         -276.53338
     30       2.00000         -10.162384         -276.53253
     31       2.00000         -10.159265         -276.44766
     32       2.00000         -10.158676         -276.43163
     33       2.00000          -1.033604          -28.12578
     34       2.00000          -1.010713          -27.50291
     35       2.00000          -1.009985          -27.48308
     36       2.00000          -0.973226          -26.48283
     37       2.00000          -0.966377          -26.29645
     38       2.00000          -0.961518          -26.16424
     39       2.00000          -0.960097          -26.12557
     40       2.00000          -0.914888          -24.89538
     41       2.00000          -0.913916          -24.86891
     42       2.00000          -0.884078          -24.05698
     43       2.00000          -0.881429          -23.98489
     44       2.00000          -0.880882          -23.97001
     45       2.00000          -0.878022          -23.89220
     46       2.00000          -0.873568          -23.77098
     47       2.00000          -0.863007          -23.48362
     48       2.00000          -0.846375          -23.03104
     49       2.00000          -0.785080          -21.36313
     50       2.00000          -0.777106          -21.14614
     51       2.00000          -0.767345          -20.88053
     52       2.00000          -0.764318          -20.79816
     53       2.00000          -0.763354          -20.77192
     54       2.00000          -0.761482          -20.72098
     55       2.00000          -0.747693          -20.34576
     56       2.00000          -0.735440          -20.01234
     57       2.00000          -0.717116          -19.51372
     58       2.00000          -0.696819          -18.96141
     59       2.00000          -0.670390          -18.24224
     60       2.00000          -0.661249          -17.99349
     61       2.00000          -0.656466          -17.86335
     62       2.00000          -0.653825          -17.79148
     63       2.00000          -0.651222          -17.72066
     64       2.00000          -0.650387          -17.69793
     65       2.00000          -0.648182          -17.63793
     66       2.00000          -0.645195          -17.55666
     67       2.00000          -0.622358          -16.93523
     68       2.00000          -0.607773          -16.53835
     69       2.00000          -0.601578          -16.36978
     70       2.00000          -0.601065          -16.35581
     71       2.00000          -0.592585          -16.12505
     72       2.00000          -0.588526          -16.01461
     73       2.00000          -0.586937          -15.97136
     74       2.00000          -0.583327          -15.87314
     75       2.00000          -0.579107          -15.75829
     76       2.00000          -0.570482          -15.52360
     77       2.00000          -0.567003          -15.42894
     78       2.00000          -0.554518          -15.08921
     79       2.00000          -0.543764          -14.79657
     80       2.00000          -0.543516          -14.78983
     81       2.00000          -0.541241          -14.72793
     82       2.00000          -0.538084          -14.64201
     83       2.00000          -0.528022          -14.36822
     84       2.00000          -0.525818          -14.30823
     85       2.00000          -0.523340          -14.24080
     86       2.00000          -0.520219          -14.15587
     87       2.00000          -0.516142          -14.04495
     88       2.00000          -0.502862          -13.68356
     89       2.00000          -0.502164          -13.66457
     90       2.00000          -0.498415          -13.56257
     91       2.00000          -0.497446          -13.53620
     92       2.00000          -0.488110          -13.28214
     93       2.00000          -0.483572          -13.15867
     94       2.00000          -0.472947          -12.86954
     95       2.00000          -0.472198          -12.84916
     96       2.00000          -0.467914          -12.73260
     97       2.00000          -0.462665          -12.58976
     98       2.00000          -0.430282          -11.70856
     99       2.00000          -0.428268          -11.65378
    100       2.00000          -0.398445          -10.84224
    101       2.00000          -0.398247          -10.83684
    102       2.00000          -0.397639          -10.82030
    103       2.00000          -0.386544          -10.51840
    104       2.00000          -0.382255          -10.40168
    105       2.00000          -0.372191          -10.12784
    106       2.00000          -0.360831           -9.81872
    107       0.00000          -0.271018           -7.37478
    108       0.00000          -0.243002           -6.61243
    109       0.00000          -0.241567           -6.57338
    110       0.00000          -0.216342           -5.88697
    111       0.00000          -0.215478           -5.86347
    112       0.00000          -0.213429           -5.80770
    113       0.00000          -0.188616           -5.13249
    114       0.00000          -0.180999           -4.92524
    115       0.00000          -0.164715           -4.48212
    116       0.00000          -0.159959           -4.35270
    117       0.00000          -0.121313           -3.30108
    118       0.00000          -0.119781           -3.25939
    119       0.00000          -0.095906           -2.60974
    120       0.00000          -0.077037           -2.09628
    121       0.00000          -0.067849           -1.84627
    122       0.00000          -0.066176           -1.80075
    123       0.00000          -0.059558           -1.62066
    124       0.00000          -0.055643           -1.51412
    125       0.00000          -0.053618           -1.45902
    126       0.00000          -0.051738           -1.40785
    127       0.00000          -0.042829           -1.16544
    128       0.00000          -0.039439           -1.07319
    129       0.00000          -0.032893           -0.89507
    130       0.00000          -0.030934           -0.84175
    131       0.00000          -0.024965           -0.67933
    132       0.00000          -0.023964           -0.65209
    133       0.00000          -0.021737           -0.59149
    134       0.00000          -0.020014           -0.54461
    135       0.00000          -0.018463           -0.50242
    136       0.00000          -0.015675           -0.42655
    137       0.00000          -0.009908           -0.26961
    138       0.00000          -0.006468           -0.17600
    139       0.00000          -0.003744           -0.10188
    140       0.00000           0.001794            0.04880
    141       0.00000           0.004423            0.12035
    142       0.00000           0.005523            0.15029
    143       0.00000           0.012472            0.33939
    144       0.00000           0.016047            0.43666
    145       0.00000           0.022738            0.61874
    146       0.00000           0.027293            0.74268
    147       0.00000           0.030126            0.81976
    148       0.00000           0.032328            0.87970
    149       0.00000           0.035530            0.96683
    150       0.00000           0.038337            1.04320
    151       0.00000           0.042447            1.15503
    152       0.00000           0.044661            1.21529
    153       0.00000           0.047885            1.30301
    154       0.00000           0.049607            1.34988
    155       0.00000           0.051399            1.39865
    156       0.00000           0.054146            1.47339
    157       0.00000           0.056629            1.54097
    158       0.00000           0.058358            1.58800
    159       0.00000           0.061911            1.68467
    160       0.00000           0.063771            1.73531
    161       0.00000           0.066872            1.81967
    162       0.00000           0.068396            1.86115
    163       0.00000           0.071167            1.93656
    164       0.00000           0.076303            2.07630
    165       0.00000           0.077853            2.11850
    166       0.00000           0.079489            2.16301
    167       0.00000           0.081262            2.21126
    168       0.00000           0.086045            2.34142
    169       0.00000           0.086343            2.34952
    170       0.00000           0.088432            2.40635
    171       0.00000           0.091675            2.49459
    172       0.00000           0.095130            2.58861
    173       0.00000           0.095887            2.60921
    174       0.00000           0.097915            2.66439
    175       0.00000           0.103753            2.82326
    176       0.00000           0.106796            2.90608
    177       0.00000           0.109012            2.96637
    178       0.00000           0.110847            3.01631
    179       0.00000           0.113377            3.08516
    180       0.00000           0.113701            3.09398
    181       0.00000           0.115673            3.14762
    182       0.00000           0.121003            3.29266
    183       0.00000           0.125505            3.41516
    184       0.00000           0.126443            3.44069
    185       0.00000           0.129598            3.52653
    186       0.00000           0.130073            3.53948
    187       0.00000           0.133896            3.64350
    188       0.00000           0.136239            3.70725
    189       0.00000           0.141620            3.85369
    190       0.00000           0.143301            3.89941
    191       0.00000           0.146228            3.97907
    192       0.00000           0.148777            4.04844
    193       0.00000           0.150316            4.09029
    194       0.00000           0.150622            4.09864
    195       0.00000           0.153767            4.18422
    196       0.00000           0.156060            4.24660
    197       0.00000           0.161823            4.40342
    198       0.00000           0.166734            4.53707
    199       0.00000           0.168507            4.58530
    200       0.00000           0.169476            4.61168
    201       0.00000           0.171913            4.67799
    202       0.00000           0.175695            4.78091
    203       0.00000           0.177914            4.84129
    204       0.00000           0.181277            4.93279
    205       0.00000           0.182854            4.97571
    206       0.00000           0.186495            5.07479
    207       0.00000           0.189016            5.14339
    208       0.00000           0.189704            5.16211
    209       0.00000           0.196379            5.34375
    210       0.00000           0.198214            5.39368
    211       0.00000           0.199875            5.43888
    212       0.00000           0.202104            5.49954
    213       0.00000           0.202813            5.51882
    214       0.00000           0.207381            5.64312
    215       0.00000           0.209806            5.70911
    216       0.00000           0.215610            5.86705
    217       0.00000           0.218336            5.94124
    218       0.00000           0.222815            6.06311
    219       0.00000           0.226768            6.17067
    220       0.00000           0.228571            6.21973
    221       0.00000           0.230373            6.26877
    222       0.00000           0.235285            6.40243
    223       0.00000           0.236251            6.42872
    224       0.00000           0.242075            6.58720
    225       0.00000           0.243144            6.61628
    226       0.00000           0.249515            6.78964
    227       0.00000           0.252796            6.87894
    228       0.00000           0.254186            6.91677
    229       0.00000           0.261556            7.11730
    230       0.00000           0.262785            7.15074
    231       0.00000           0.264588            7.19981
    232       0.00000           0.267087            7.26780

  Highest occupied state (VBM) at     -9.81872241 eV
  | Occupation number:      2.00000000

  Lowest unoccupied state (CBM) at    -7.37478414 eV
  | Occupation number:      0.00000000

  Overall HOMO-LUMO gap:      2.44393826 eV.
  Calculating total energy contributions from superposition of free atom densities.

  Total energy components:
  | Sum of eigenvalues            :        -746.54440030 Ha      -20314.50672286 eV
  | XC energy correction          :        -176.64845104 Ha       -4806.84892249 eV
  | XC potential correction       :         226.90206170 Ha        6174.31924482 eV
  | Free-atom electrostatic energy:        -536.19238712 Ha      -14590.53721182 eV
  | Hartree energy correction     :           0.00000000 Ha           0.00000000 eV
  | Entropy correction            :           0.00000000 Ha           0.00000000 eV
  | ---------------------------
  | Total energy                  :       -1232.48317675 Ha      -33537.57361235 eV
  | Total energy, T -> 0          :       -1232.48317675 Ha      -33537.57361235 eV  <-- do not rely on this value for anything but (periodic) metals
  | Electronic free energy        :       -1232.48317675 Ha      -33537.57361235 eV

  Derived energy quantities:
  | Kinetic energy                :        1220.87771142 Ha       33221.77283306 eV
  | Electrostatic energy          :       -2276.71243714 Ha      -61952.49752292 eV
  | Energy correction for multipole
  | error in Hartree potential    :           0.00000000 Ha           0.00000000 eV
  | Sum of eigenvalues per atom                           :        -390.66359082 eV
  | Total energy (T->0) per atom                          :        -644.95333870 eV  <-- do not rely on this value for anything but (periodic) metals
  | Electronic free energy per atom                       :        -644.95333870 eV
  Initialize hartree_potential_storage
  Max. number of atoms included in rho_multipole:           52

  End scf initialization - timings             :  max(cpu_time)    wall_clock(cpu1)
  | Time for scf. initialization               :        8.925 s           8.982 s
  | Boundary condition initialization          :        0.001 s           0.004 s
  | Integration                                :        6.774 s           6.779 s
  | Solution of K.-S. eqns.                    :        0.255 s           0.270 s
  | Grid partitioning                          :        0.813 s           0.817 s
  | Preloading free-atom quantities on grid    :        0.014 s           0.016 s
  | Free-atom superposition energy             :        0.080 s           0.080 s
  | Total energy evaluation                    :        0.001 s           0.003 s

  Partial memory accounting:
  | Current value for overall tracked memory usage on task 0  :           4.506 MB
  | Peak value for overall tracked memory usage on task 0     :          30.677 MB after allocating zora_vector2
  | Largest tracked array allocation on task 0 so far         :           9.435 MB  when allocating hamiltonian_shell
  Note:  These values currently only include a subset of arrays which are explicitly tracked.
  The "true" memory usage will be greater.
------------------------------------------------------------

------------------------------------------------------------
          Begin self-consistency iteration #    1

  Date     :  20210620, Time     :  173632.307
------------------------------------------------------------
  Evaluating new KS density.
  Integration grid: deviation in total charge (<rho> - N_e) =   8.526513E-14
  Pulay mixing of updated and previous charge densities.

  Evaluating partitioned Hartree potential by multipole expansion.
  | Analytical far-field extrapolation by fixed multipoles:
  | Hartree multipole sum: apparent total charge =   0.128225E-03
  Summing up the Hartree potential with load balancing.
  Time summed over all CPUs for potential: real work       28.843 s, elapsed       51.952 s
  | RMS charge density error from multipole expansion :   0.134483E-01

  Start compute_balanced_batch_distribution
  Done load balancing, time needed:      0.007 s
  Integrating Hamiltonian matrix: batch-based integration with load balancing
  Time summed over all CPUs for integration: real work      180.953 s, elapsed      196.679 s
  Time get_set_full_local_matrix_scalapack:     0.019746 s
  Start compute_balanced_batch_distribution
  Done load balancing, time needed:      0.008 s

  Updating Kohn-Sham eigenvalues and eigenvectors using ELSI and the ELPA eigensolver.
  Finished transformation to standard eigenproblem
  | Time :     0.019 s
  Starting ELPA eigensolver
  Finished solving standard eigenproblem
  | Time :     0.098 s
  Finished back-transformation of eigenvectors
  | Time :     0.004 s

  Obtaining occupation numbers and chemical potential using ELSI.
  | Chemical potential (Fermi level):    -5.92226765 eV
  Writing Kohn-Sham eigenvalues.

  State    Occupation    Eigenvalue [Ha]    Eigenvalue [eV]
      1       2.00000          -9.983458         -271.66371
      2       2.00000          -9.981210         -271.60253
      3       2.00000          -9.980690         -271.58840
      4       2.00000          -9.979733         -271.56235
      5       2.00000          -9.969492         -271.28368
      6       2.00000          -9.968190         -271.24825
      7       2.00000          -9.966097         -271.19129
      8       2.00000          -9.963549         -271.12197
      9       2.00000          -9.963307         -271.11537
     10       2.00000          -9.962912         -271.10463
     11       2.00000          -9.961580         -271.06839
     12       2.00000          -9.960206         -271.03101
     13       2.00000          -9.959332         -271.00720
     14       2.00000          -9.957610         -270.96036
     15       2.00000          -9.957267         -270.95101
     16       2.00000          -9.951199         -270.78589
     17       2.00000          -9.950446         -270.76542
     18       2.00000          -9.946118         -270.64765
     19       2.00000          -9.944116         -270.59316
     20       2.00000          -9.944095         -270.59259
     21       2.00000          -9.944003         -270.59010
     22       2.00000          -9.943298         -270.57092
     23       2.00000          -9.942581         -270.55139
     24       2.00000          -9.942247         -270.54232
     25       2.00000          -9.942055         -270.53709
     26       2.00000          -9.941038         -270.50940
     27       2.00000          -9.940988         -270.50806
     28       2.00000          -9.940786         -270.50254
     29       2.00000          -9.940477         -270.49415
     30       2.00000          -9.940459         -270.49364
     31       2.00000          -9.940220         -270.48715
     32       2.00000          -9.930894         -270.23338
     33       2.00000          -0.877175          -23.86915
     34       2.00000          -0.853447          -23.22348
     35       2.00000          -0.853241          -23.21788
     36       2.00000          -0.820911          -22.33812
     37       2.00000          -0.809342          -22.02333
     38       2.00000          -0.804042          -21.87910
     39       2.00000          -0.800916          -21.79404
     40       2.00000          -0.766176          -20.84870
     41       2.00000          -0.763207          -20.76792
     42       2.00000          -0.736041          -20.02871
     43       2.00000          -0.727392          -19.79335
     44       2.00000          -0.727025          -19.78335
     45       2.00000          -0.723234          -19.68020
     46       2.00000          -0.722147          -19.65063
     47       2.00000          -0.710221          -19.32610
     48       2.00000          -0.691613          -18.81976
     49       2.00000          -0.644339          -17.53337
     50       2.00000          -0.629293          -17.12393
     51       2.00000          -0.621639          -16.91567
     52       2.00000          -0.616249          -16.76899
     53       2.00000          -0.614150          -16.71188
     54       2.00000          -0.613309          -16.68899
     55       2.00000          -0.605935          -16.48833
     56       2.00000          -0.593213          -16.14214
     57       2.00000          -0.572942          -15.59055
     58       2.00000          -0.556108          -15.13248
     59       2.00000          -0.527657          -14.35828
     60       2.00000          -0.522841          -14.22722
     61       2.00000          -0.521675          -14.19549
     62       2.00000          -0.517436          -14.08015
     63       2.00000          -0.513624          -13.97641
     64       2.00000          -0.505963          -13.76795
     65       2.00000          -0.503646          -13.70491
     66       2.00000          -0.501107          -13.63583
     67       2.00000          -0.478492          -13.02043
     68       2.00000          -0.469607          -12.77866
     69       2.00000          -0.463924          -12.62401
     70       2.00000          -0.457301          -12.44380
     71       2.00000          -0.450903          -12.26968
     72       2.00000          -0.444829          -12.10441
     73       2.00000          -0.442889          -12.05162
     74       2.00000          -0.433344          -11.79189
     75       2.00000          -0.432738          -11.77541
     76       2.00000          -0.430615          -11.71763
     77       2.00000          -0.430455          -11.71328
     78       2.00000          -0.421619          -11.47284
     79       2.00000          -0.415578          -11.30846
     80       2.00000          -0.414405          -11.27654
     81       2.00000          -0.413468          -11.25103
     82       2.00000          -0.406535          -11.06239
     83       2.00000          -0.395099          -10.75120
     84       2.00000          -0.394708          -10.74056
     85       2.00000          -0.394013          -10.72164
     86       2.00000          -0.385261          -10.48350
     87       2.00000          -0.378305          -10.29421
     88       2.00000          -0.361846           -9.84632
     89       2.00000          -0.359831           -9.79150
     90       2.00000          -0.357080           -9.71665
     91       2.00000          -0.355232           -9.66637
     92       2.00000          -0.349613           -9.51345
     93       2.00000          -0.346021           -9.41572
     94       2.00000          -0.344212           -9.36648
     95       2.00000          -0.338596           -9.21366
     96       2.00000          -0.337342           -9.17954
     97       2.00000          -0.333590           -9.07743
     98       2.00000          -0.301572           -8.20620
     99       2.00000          -0.299076           -8.13826
    100       2.00000          -0.270614           -7.36378
    101       2.00000          -0.267144           -7.26935
    102       2.00000          -0.266119           -7.24146
    103       2.00000          -0.259784           -7.06909
    104       2.00000          -0.250958           -6.82892
    105       2.00000          -0.240857           -6.55405
    106       2.00000          -0.230385           -6.26910
    107       0.00000          -0.149408           -4.06559
    108       0.00000          -0.115403           -3.14026
    109       0.00000          -0.112978           -3.07428
    110       0.00000          -0.087706           -2.38661
    111       0.00000          -0.085810           -2.33501
    112       0.00000          -0.084000           -2.28576
    113       0.00000          -0.064929           -1.76682
    114       0.00000          -0.056406           -1.53488
    115       0.00000          -0.039574           -1.07686
    116       0.00000          -0.036742           -0.99981
    117       0.00000          -0.027810           -0.75674
    118       0.00000          -0.020832           -0.56688
    119       0.00000          -0.019846           -0.54005
    120       0.00000          -0.012787           -0.34796
    121       0.00000          -0.009680           -0.26339
    122       0.00000          -0.008162           -0.22209
    123       0.00000          -0.003903           -0.10621
    124       0.00000           0.005231            0.14234
    125       0.00000           0.007229            0.19672
    126       0.00000           0.008684            0.23631
    127       0.00000           0.010639            0.28949
    128       0.00000           0.014966            0.40725
    129       0.00000           0.019304            0.52528
    130       0.00000           0.019890            0.54124
    131       0.00000           0.024708            0.67234
    132       0.00000           0.030226            0.82248
    133       0.00000           0.034894            0.94951
    134       0.00000           0.038262            1.04117
    135       0.00000           0.043634            1.18733
    136       0.00000           0.047680            1.29744
    137       0.00000           0.053010            1.44249
    138       0.00000           0.059203            1.61099
    139       0.00000           0.071403            1.94296
    140       0.00000           0.076754            2.08858
    141       0.00000           0.083030            2.25937
    142       0.00000           0.085129            2.31647
    143       0.00000           0.086698            2.35918
    144       0.00000           0.090703            2.46817
    145       0.00000           0.093311            2.53912
    146       0.00000           0.094601            2.57422
    147       0.00000           0.098561            2.68197
    148       0.00000           0.102324            2.78437
    149       0.00000           0.106748            2.90476
    150       0.00000           0.110633            3.01048
    151       0.00000           0.116242            3.16310
    152       0.00000           0.117346            3.19314
    153       0.00000           0.122998            3.34695
    154       0.00000           0.124009            3.37445
    155       0.00000           0.127965            3.48211
    156       0.00000           0.129656            3.52811
    157       0.00000           0.133793            3.64070
    158       0.00000           0.135353            3.68315
    159       0.00000           0.138190            3.76035
    160       0.00000           0.139568            3.79784
    161       0.00000           0.141717            3.85631
    162       0.00000           0.143506            3.90500
    163       0.00000           0.144828            3.94098
    164       0.00000           0.147227            4.00625
    165       0.00000           0.149518            4.06859
    166       0.00000           0.155097            4.22041
    167       0.00000           0.157586            4.28813
    168       0.00000           0.159749            4.34699
    169       0.00000           0.162650            4.42594
    170       0.00000           0.165550            4.50483
    171       0.00000           0.167037            4.54530
    172       0.00000           0.167535            4.55886
    173       0.00000           0.173700            4.72662
    174       0.00000           0.177953            4.84235
    175       0.00000           0.178932            4.86899
    176       0.00000           0.179986            4.89768
    177       0.00000           0.181539            4.93994
    178       0.00000           0.184372            5.01701
    179       0.00000           0.186119            5.06456
    180       0.00000           0.187274            5.09600
    181       0.00000           0.190132            5.17374
    182       0.00000           0.192432            5.23633
    183       0.00000           0.195737            5.32628
    184       0.00000           0.198108            5.39078
    185       0.00000           0.199583            5.43094
    186       0.00000           0.204642            5.56860
    187       0.00000           0.206995            5.63261
    188       0.00000           0.209148            5.69119
    189       0.00000           0.212423            5.78031
    190       0.00000           0.215584            5.86633
    191       0.00000           0.218235            5.93849
    192       0.00000           0.218572            5.94765
    193       0.00000           0.223987            6.09500
    194       0.00000           0.225942            6.14819
    195       0.00000           0.229555            6.24650
    196       0.00000           0.232638            6.33040
    197       0.00000           0.232928            6.33830
    198       0.00000           0.239787            6.52494
    199       0.00000           0.240070            6.53265
    200       0.00000           0.241717            6.57744
    201       0.00000           0.246066            6.69581
    202       0.00000           0.249340            6.78490
    203       0.00000           0.250433            6.81464
    204       0.00000           0.253807            6.90645
    205       0.00000           0.259539            7.06241
    206       0.00000           0.260832            7.09761
    207       0.00000           0.261407            7.11325
[...]
     62       2.00000          -0.457517          -12.44967
     63       2.00000          -0.454315          -12.36254
     64       2.00000          -0.448449          -12.20291
     65       2.00000          -0.446105          -12.13915
     66       2.00000          -0.442563          -12.04275
     67       2.00000          -0.419488          -11.41484
     68       2.00000          -0.412477          -11.22408
     69       2.00000          -0.405708          -11.03986
     70       2.00000          -0.402328          -10.94790
     71       2.00000          -0.394231          -10.72757
     72       2.00000          -0.385954          -10.50234
     73       2.00000          -0.384672          -10.46747
     74       2.00000          -0.375802          -10.22610
     75       2.00000          -0.373770          -10.17081
     76       2.00000          -0.372202          -10.12814
     77       2.00000          -0.371357          -10.10513
     78       2.00000          -0.367851          -10.00975
     79       2.00000          -0.362851           -9.87368
     80       2.00000          -0.359881           -9.79287
     81       2.00000          -0.354989           -9.65975
     82       2.00000          -0.353520           -9.61978
     83       2.00000          -0.351967           -9.57752
     84       2.00000          -0.347838           -9.46516
     85       2.00000          -0.335370           -9.12589
     86       2.00000          -0.327795           -8.91976
     87       2.00000          -0.318988           -8.68010
     88       2.00000          -0.309566           -8.42372
     89       2.00000          -0.307339           -8.36313
     90       2.00000          -0.305695           -8.31838
     91       2.00000          -0.299344           -8.14555
     92       2.00000          -0.297279           -8.08938
     93       2.00000          -0.295142           -8.03121
     94       2.00000          -0.293475           -7.98586
     95       2.00000          -0.291229           -7.92475
     96       2.00000          -0.287801           -7.83146
     97       2.00000          -0.280619           -7.63603
     98       2.00000          -0.261060           -7.10381
     99       2.00000          -0.257959           -7.01941
    100       2.00000          -0.231162           -6.29024
    101       2.00000          -0.229041           -6.23252
    102       2.00000          -0.227837           -6.19976
    103       2.00000          -0.218552           -5.94711
    104       2.00000          -0.209369           -5.69722
    105       2.00000          -0.199626           -5.43211
    106       2.00000          -0.187680           -5.10704
    107       0.00000          -0.106174           -2.88913
    108       0.00000          -0.074878           -2.03754
    109       0.00000          -0.071972           -1.95845
    110       0.00000          -0.047928           -1.30419
    111       0.00000          -0.045610           -1.24112
    112       0.00000          -0.043615           -1.18681
    113       0.00000          -0.023700           -0.64492
    114       0.00000          -0.016593           -0.45151
    115       0.00000          -0.008924           -0.24283
    116       0.00000          -0.001483           -0.04035
    117       0.00000           0.001360            0.03700
    118       0.00000           0.001825            0.04966
    119       0.00000           0.007382            0.20087
    120       0.00000           0.007989            0.21740
    121       0.00000           0.011449            0.31153
    122       0.00000           0.012959            0.35264
    123       0.00000           0.016698            0.45439
    124       0.00000           0.026843            0.73043
    125       0.00000           0.029635            0.80642
    126       0.00000           0.033428            0.90963
    127       0.00000           0.038444            1.04612
    128       0.00000           0.038762            1.05476
    129       0.00000           0.043864            1.19359
    130       0.00000           0.049150            1.33743
    131       0.00000           0.051972            1.41422
    132       0.00000           0.054826            1.49189
    133       0.00000           0.059480            1.61854
    134       0.00000           0.063622            1.73123
    135       0.00000           0.067191            1.82837
    136       0.00000           0.073061            1.98808
    137       0.00000           0.074180            2.01855
    138       0.00000           0.083392            2.26922
    139       0.00000           0.096105            2.61514
    140       0.00000           0.097165            2.64400
    141       0.00000           0.111535            3.03503
    142       0.00000           0.113470            3.08766
    143       0.00000           0.114421            3.11356
    144       0.00000           0.116973            3.18300
    145       0.00000           0.120063            3.26709
    146       0.00000           0.122641            3.33722
    147       0.00000           0.127575            3.47149
    148       0.00000           0.131737            3.58474
    149       0.00000           0.134964            3.67257
    150       0.00000           0.138817            3.77740
    151       0.00000           0.143723            3.91090
    152       0.00000           0.145642            3.96313
    153       0.00000           0.152150            4.14022
    154       0.00000           0.157283            4.27989
    155       0.00000           0.158631            4.31657
    156       0.00000           0.159862            4.35006
    157       0.00000           0.161197            4.38641
    158       0.00000           0.162285            4.41599
    159       0.00000           0.164367            4.47265
    160       0.00000           0.165726            4.50963
    161       0.00000           0.169697            4.61768
    162       0.00000           0.171438            4.66506
    163       0.00000           0.172541            4.69508
    164       0.00000           0.177209            4.82209
    165       0.00000           0.183015            4.98010
    166       0.00000           0.186296            5.06936
    167       0.00000           0.188743            5.13595
    168       0.00000           0.193533            5.26629
    169       0.00000           0.195143            5.31010
    170       0.00000           0.197932            5.38601
    171       0.00000           0.201636            5.48680
    172       0.00000           0.202618            5.51353
    173       0.00000           0.205451            5.59060
    174       0.00000           0.206409            5.61668
    175       0.00000           0.208248            5.66671
    176       0.00000           0.209959            5.71328
    177       0.00000           0.212928            5.79406
    178       0.00000           0.213315            5.80460
    179       0.00000           0.216746            5.89797
    180       0.00000           0.219759            5.97995
    181       0.00000           0.220894            6.01083
    182       0.00000           0.225317            6.13120
    183       0.00000           0.227080            6.17916
    184       0.00000           0.228047            6.20549
    185       0.00000           0.231921            6.31090
    186       0.00000           0.233871            6.36396
    187       0.00000           0.235892            6.41894
    188       0.00000           0.236993            6.44890
    189       0.00000           0.242841            6.60804
    190       0.00000           0.246183            6.69898
    191       0.00000           0.251463            6.84267
    192       0.00000           0.253491            6.89784
    193       0.00000           0.254454            6.92405
    194       0.00000           0.256782            6.98739
    195       0.00000           0.262556            7.14451
    196       0.00000           0.264294            7.19182
    197       0.00000           0.268156            7.29690
    198       0.00000           0.270525            7.36135
    199       0.00000           0.273229            7.43494
    200       0.00000           0.277208            7.54321
    201       0.00000           0.278181            7.56968
    202       0.00000           0.280782            7.64046
    203       0.00000           0.285314            7.76379
    204       0.00000           0.286888            7.80663
    205       0.00000           0.291812            7.94062
    206       0.00000           0.293765            7.99376
    207       0.00000           0.294887            8.02427
    208       0.00000           0.298358            8.11873
    209       0.00000           0.302436            8.22971
    210       0.00000           0.304831            8.29487
    211       0.00000           0.307902            8.37844
    212       0.00000           0.309620            8.42520
    213       0.00000           0.311214            8.46858
    214       0.00000           0.313595            8.53336
    215       0.00000           0.316087            8.60116
    216       0.00000           0.321824            8.75728
    217       0.00000           0.324950            8.84233
    218       0.00000           0.327164            8.90258
    219       0.00000           0.329513            8.96651
    220       0.00000           0.335581            9.13161
    221       0.00000           0.339224            9.23074
    222       0.00000           0.341075            9.28112
    223       0.00000           0.342289            9.31415
    224       0.00000           0.346394            9.42587
    225       0.00000           0.353068            9.60747
    226       0.00000           0.359194            9.77415
    227       0.00000           0.364180            9.90983
    228       0.00000           0.366834            9.98205
    229       0.00000           0.369888           10.06518
    230       0.00000           0.377088           10.26110
    231       0.00000           0.378341           10.29517
    232       0.00000           0.382090           10.39720

  Highest occupied state (VBM) at     -5.10703975 eV
  | Occupation number:      2.00000000

  Lowest unoccupied state (CBM) at    -2.88912824 eV
  | Occupation number:      0.00000000

  Overall HOMO-LUMO gap:      2.21791151 eV.

  Total energy components:
  | Sum of eigenvalues            :        -700.36549363 Ha      -19057.91473764 eV
  | XC energy correction          :        -179.99739641 Ha       -4897.97836278 eV
  | XC potential correction       :         231.23028160 Ha        6292.09610055 eV
  | Free-atom electrostatic energy:        -536.19238712 Ha      -14590.53721182 eV
  | Hartree energy correction     :         -45.61409739 Ha       -1241.22274274 eV
  | Entropy correction            :           0.00000000 Ha           0.00000000 eV
  | ---------------------------
  | Total energy                  :       -1230.93909295 Ha      -33495.55695443 eV
  | Total energy, T -> 0          :       -1230.93909295 Ha      -33495.55695443 eV  <-- do not rely on this value for anything but (periodic) metals
  | Electronic free energy        :       -1230.93909295 Ha      -33495.55695443 eV

  Derived energy quantities:
  | Kinetic energy                :        1227.91708485 Ha       33413.32392990 eV
  | Electrostatic energy          :       -2278.85878139 Ha      -62010.90252155 eV
  | Energy correction for multipole
  | error in Hartree potential    :          -0.14237068 Ha          -3.87410326 eV
  | Sum of eigenvalues per atom                           :        -366.49836034 eV
  | Total energy (T->0) per atom                          :        -644.14532605 eV  <-- do not rely on this value for anything but (periodic) metals
  | Electronic free energy per atom                       :        -644.14532605 eV
  End evaluation of scaled ZORA corrections.
  | Time for scaled ZORA corrections           :        6.371 s           6.382 s
------------------------------------------------------------

  Energy and forces in a compact form:
  | Total energy uncorrected      :         -0.334955569544266E+05 eV
  | Total energy corrected        :         -0.334955569544266E+05 eV  <-- do not rely on this value for anything but (periodic) metals
  | Electronic free energy        :         -0.334955569544266E+05 eV

  ------------------------------------ 
  Start decomposition of the XC Energy 
  ------------------------------------ 
  X and C from original XC functional choice 
  Hartree-Fock Energy :          0.000000000 Ha              0.000000000 eV
  X Energy            :       -172.896785450 Ha          -4704.760907700 eV
  C Energy            :         -7.100610962 Ha           -193.217455075 eV
  Total XC Energy     :       -179.997396412 Ha          -4897.978362775 eV
  ------------------------------------ 
  LDA X and C from self-consistent density 
  X Energy LDA        :       -156.589204158 Ha          -4261.009042885 eV
  C Energy LDA        :        -13.680621278 Ha           -372.268645792 eV
  ------------------------------------ 
  End decomposition of the XC Energy 
  ------------------------------------ 

------------------------------------------------------------

------------------------------------------------------------------------------
  Final output of selected total energy values:

  The following output summarizes some interesting total energy values
  at the end of a run (AFTER all relaxation, molecular dynamics, etc.).

  | Total energy of the DFT / Hartree-Fock s.c.f. calculation      :         -33495.556954427 eV
  | Final zero-broadening corrected energy (caution - metals only) :         -33495.556954427 eV
  | For reference only, the value of 1 Hartree used in FHI-aims is :             27.211384500 eV

  Before relying on these values, please be sure to understand exactly which
  total energy value is referred to by a given number. Different objects may
  all carry the same name 'total energy'. Definitions:

  Total energy of the DFT / Hartree-Fock s.c.f. calculation:
  | Note that this energy does not include ANY quantities calculated after the
  | s.c.f. cycle, in particular not ANY RPA, MP2, etc. many-body perturbation terms.
  | Scalar relativistic effects have been included in the 'scaled ZORA' approximation.

  Final zero-broadening corrected energy:
  | For metallic systems only, a broadening of the occupation numbers at the Fermi
  | level can be extrapolated back to zero broadening by an electron-gas inspired
  | formula. For all systems that are not real metals, this value can be
  | meaningless and should be avoided.

------------------------------------------------------------------------------
  Methods described in the following list of references were used in this FHI-aims run.
  If you publish the results, please make sure to cite these reference if they apply.
  FHI-aims is an academic code, and for our developers (often, Ph.D. students
  and postdocs), scientific credit in the community is essential.
  Thank you for helping us!

  For any use of FHI-aims, please cite:

    Volker Blum, Ralf Gehrke, Felix Hanke, Paula Havu, Ville Havu,
    Xinguo Ren, Karsten Reuter, and Matthias Scheffler
    'Ab initio molecular simulations with numeric atom-centered orbitals'
    Computer Physics Communications 180, 2175-2196 (2009)
    http://dx.doi.org/10.1016/j.cpc.2009.06.022


  The scalable eigensolver library ELPA was used in your run.
  ELPA is essential especially for large systems on hundreds or thousands of CPUs.
  For ELPA, please cite:

    Andreas Marek, Volker Blum, Rainer Johanni, Ville Havu, Bruno Lang,
    Thomas Auckenthaler, Alexander Heinecke, Hans-Joachim Bungartz, and Hermann Lederer,
    'The ELPA Library - Scalable Parallel Eigenvalue Solutions
    for Electronic Structure Theory and Computational Science'
    The Journal of Physics: Condensed Matter 26, 213201 (2014).
    http://dx.doi.org/10.1088/0953-8984/26/21/213201


  The ELSI infrastructure was used in your run to solve the Kohn-Sham electronic structure.
  Please check out http://elsi-interchange.org to learn more.
  If scalability is important for your project, please acknowledge ELSI by citing:

    V. W-z. Yu, F. Corsetti, A. Garcia, W. P. Huhn, M. Jacquelin, W. Jia,
    B. Lange, L. Lin, J. Lu, W. Mi, A. Seifitokaldani, A. Vazquez-Mayagoitia,
    C. Yang, H. Yang, and V. Blum
    'ELSI: A unified software interface for Kohn-Sham electronic structure solvers'
    Computer Physics Communications 222, 267-285 (2018).
    http://dx.doi.org/10.1016/j.cpc.2017.09.007


  For the real-space grid partitioning and parallelization used in this calculation, please cite:

    Ville Havu, Volker Blum, Paula Havu, and Matthias Scheffler,
    'Efficient O(N) integration for all-electron electronic structure calculation'
    'using numerically tabulated basis functions'
    Journal of Computational Physics 228, 8367-8379 (2009).
    http://dx.doi.org/10.1016/j.jcp.2009.08.008

  Of course, there are many other important community references, e.g., those cited in the
  above references. Our list is limited to references that describe implementations in the
  FHI-aims code. The reason is purely practical (length of this list) - please credit others as well.

------------------------------------------------------------
          Leaving FHI-aims.
          Date     :  20210620, Time     :  173820.431

          Computational steps:
          | Number of self-consistency cycles          :           18
          | Number of SCF (re)initializations          :            1

          Detailed time accounting                     :  max(cpu_time)    wall_clock(cpu1)
          | Total time                                 :      117.324 s         117.512 s
          | Preparation time                           :        0.195 s           0.191 s
          | Boundary condition initalization           :        0.001 s           0.004 s
          | Grid partitioning                          :        0.813 s           0.817 s
          | Preloading free-atom quantities on grid    :        0.014 s           0.016 s
          | Free-atom superposition energy             :        0.080 s           0.080 s
          | Total time for integrations                :       67.421 s          67.427 s
          | Total time for solution of K.-S. equations :        3.271 s           3.292 s
          | Total time for density update              :       26.558 s          26.513 s
          | Total time for mixing                      :        0.153 s           0.153 s
          | Total time for Hartree multipole update    :        0.171 s           0.179 s
          | Total time for Hartree multipole sum       :       11.004 s          11.007 s
          | Total time for total energy evaluation     :        0.008 s           0.032 s
          | Total time for scaled ZORA corrections     :        6.371 s           6.382 s

          Partial memory accounting:
          | Residual value for overall tracked memory usage across tasks :     0.000000 MB (should be 0.000000 MB)
          | Peak values for overall tracked memory usage (after allocating zora_vector2):
          |   Minimum:       30.725 MB (on task 40)
          |   Maximum:       39.874 MB (on task 50)
          |   Average:       35.297 MB
          | Largest tracked array allocation (hamiltonian_shell):
          |   Minimum:        9.435 MB (on task  1)
          |   Maximum:        9.435 MB (on task  1)
          |   Average:        9.435 MB
          Note:  These values currently only include a subset of arrays which are explicitly tracked.
          The "true" memory usage will be greater.

          Have a nice day.
------------------------------------------------------------
