  MPI-parallelism will be employed.
------------------------------------------------------------
          Invoking FHI-aims ...
          Version 180607
          Git rev. (modified): 6724847 Fix JSON memory corruption in scf_solver
          Compiled on 2018/06/27 at 16:00:31 on host coe.psc.edu.

          When using FHI-aims, please cite the following reference:

          Volker Blum, Ralf Gehrke, Felix Hanke, Paula Havu,
          Ville Havu, Xinguo Ren, Karsten Reuter, and Matthias Scheffler,
          'Ab Initio Molecular Simulations with Numeric Atom-Centered Orbitals',
          Computer Physics Communications 180, 2175-2196 (2009)

          For any questions about FHI-aims, please visit the aimsclub website
          with its forums and wiki. Contributions to both the forums and the
          wiki are warmly encouraged - they are for you, and everyone is welcome there.

------------------------------------------------------------



  Date     :  20210620, Time     :  163940.174
  Time zero on CPU 1             :   0.388840000000000E+00  s.
  Internal wall clock time zero  :           393439180.174  s.

  FHI-aims created a unique identifier for this run for later identification
  aims_uuid : 17DDBAD1-3049-4A1A-A73C-26FBB5E758EC

  Using       56 parallel tasks.
  Task        0 on host d021 reporting.
  Task        1 on host d021 reporting.
  Task        2 on host d021 reporting.
  Task        3 on host d021 reporting.
  Task        4 on host d021 reporting.
  Task        5 on host d021 reporting.
  Task        6 on host d021 reporting.
  Task        7 on host d021 reporting.
  Task        8 on host d021 reporting.
  Task        9 on host d021 reporting.
  Task       10 on host d021 reporting.
  Task       11 on host d021 reporting.
  Task       12 on host d021 reporting.
  Task       13 on host d021 reporting.
  Task       14 on host d021 reporting.
  Task       15 on host d021 reporting.
  Task       16 on host d021 reporting.
  Task       17 on host d021 reporting.
  Task       18 on host d021 reporting.
  Task       19 on host d021 reporting.
  Task       20 on host d021 reporting.
  Task       21 on host d021 reporting.
  Task       22 on host d021 reporting.
  Task       23 on host d021 reporting.
  Task       24 on host d021 reporting.
  Task       25 on host d021 reporting.
  Task       26 on host d021 reporting.
  Task       27 on host d021 reporting.
  Task       28 on host d021 reporting.
  Task       29 on host d021 reporting.
  Task       30 on host d021 reporting.
  Task       31 on host d021 reporting.
  Task       32 on host d021 reporting.
  Task       33 on host d021 reporting.
  Task       34 on host d021 reporting.
  Task       35 on host d021 reporting.
  Task       36 on host d021 reporting.
  Task       37 on host d021 reporting.
  Task       38 on host d021 reporting.
  Task       39 on host d021 reporting.
  Task       40 on host d021 reporting.
  Task       41 on host d021 reporting.
  Task       42 on host d021 reporting.
  Task       43 on host d021 reporting.
  Task       44 on host d021 reporting.
  Task       45 on host d021 reporting.
  Task       46 on host d021 reporting.
  Task       47 on host d021 reporting.
  Task       48 on host d021 reporting.
  Task       49 on host d021 reporting.
  Task       50 on host d021 reporting.
  Task       51 on host d021 reporting.
  Task       52 on host d021 reporting.
  Task       53 on host d021 reporting.
  Task       54 on host d021 reporting.
  Task       55 on host d021 reporting.

  Performing system and environment tests:
  *** Environment variable OMP_NUM_THREADS is not set
  *** For performance reasons you might want to set it to 1
  | Stacksize not measured: no C compiler
  | Checking for scalapack...
  | Testing pdtran()...
  | All pdtran() tests passed.

  Obtaining array dimensions for all initial allocations:
  
  -----------------------------------------------------------------------
  Parsing control.in (first pass over file, find array dimensions only).
  The contents of control.in will be repeated verbatim below
  unless switched off by setting 'verbatim_writeout .false.' .
  in the first line of control.in .
  -----------------------------------------------------------------------
  
  #===============================================================================
  # FHI-aims file: ./Runs/es/control.in
  # Created using the Atomic Simulation Environment (ASE)
  # Mon Jan 13 16:04:38 2020
  #===============================================================================
  xc                                 pbe
  relativistic                       zora scalar 1e-12
  occupation_type                    gaussian 0.0001
  load_balancing                     .true.
  KS_method                          scalapack_fast
  mixer                              pulay
  n_max_pulay                        5
  charge_mix_param                   0.4
  sc_accuracy_etot                   1e-6
  sc_accuracy_eev                    1e-4
  sc_accuracy_rho                    1e-6
  sc_iter_limit                      100
  prodbas_threshold                  1e-4
  basis_threshold                    1e-5
  override_illconditioning           .true.
  use_logsbt                         .true.
  spin                               none
  charge                             0
  #===============================================================================
  
  ################################################################################
  #
  #  FHI-aims code project
  # Volker Blum, Fritz Haber Institute Berlin, 2009
  #
  #  Suggested "tight" defaults for H atom (to be pasted into control.in file)
  #
  ################################################################################
    species        H
  #     global species definitions
      nucleus             1
      mass                1.00794
  #
      l_hartree           6
  #
      cut_pot             4.0  2.0  1.0
      basis_dep_cutoff    1e-4
  #
      radial_base         24 7.0
      radial_multiplier   2
      angular_grids       specified
        division   0.1930   50
        division   0.3175  110
        division   0.4293  194
        division   0.5066  302
        division   0.5626  434
  #      division   0.5922  590
  #      division   0.6227  974
  #      division   0.6868 1202
  #      outer_grid  770
        outer_grid  434
  ################################################################################
  #
  #  Definition of "minimal" basis
  #
  ################################################################################
  #     valence basis states
      valence      1  s   1.
  #     ion occupancy
      ion_occ      1  s   0.5
  ################################################################################
  #
  #  Suggested additional basis functions. For production calculations,
  #  uncomment them one after another (the most important basis functions are
  #  listed first).
  #
  #  Basis constructed for dimers: 0.5 A, 0.7 A, 1.0 A, 1.5 A, 2.5 A
  #
  ################################################################################
  #  "First tier" - improvements: -1014.90 meV to -62.69 meV
       hydro 2 s 2.1
       hydro 2 p 3.5
  #  "Second tier" - improvements: -12.89 meV to -1.83 meV
       hydro 1 s 0.85
       hydro 2 p 3.7
       hydro 2 s 1.2
       hydro 3 d 7
  #  "Third tier" - improvements: -0.25 meV to -0.12 meV
  #     hydro 4 f 11.2
  #     hydro 3 p 4.8
  #     hydro 4 d 9
  #     hydro 3 s 3.2
  ################################################################################
  #
  # For methods that use the localized form of the "resolution of identity" for
  # the two-electron Coulomb operator (RI_method LVL), particularly Hartree-Fock and
  # hybrid density functional calculations, the highest accuracy can be obtained by
  # uncommenting the line beginning with "for_aux"  below, thus adding an extra g radial
  # function to the construction of the product basis set for the expansion.
  # See Ref. New J. Phys. 17, 093020 (2015) for more information, particularly Figs. 1 and 6.
  #
  ################################################################################
  #
  # for_aux hydro 5 g 6.0
  ################################################################################
  #
  #  FHI-aims code project
  # Volker Blum, Fritz Haber Institute Berlin, 2009
  #
  #  Suggested "tight" defaults for C atom (to be pasted into control.in file)
  #
  ################################################################################
    species        C
  #     global species definitions
      nucleus             6
      mass                12.0107
  #
      l_hartree           6
  #
      cut_pot             4.0  2.0  1.0
      basis_dep_cutoff    1e-4
  #
      radial_base         34 7.0
      radial_multiplier   2
      angular_grids specified
        division   0.2187   50
        division   0.4416  110
        division   0.6335  194
        division   0.7727  302
        division   0.8772  434
  #      division   0.9334  590
  #      division   0.9924  770
  #      division   1.0230  974
  #      division   1.5020 1202
  #     outer_grid  974
        outer_grid  434
  ################################################################################
  #
  #  Definition of "minimal" basis
  #
  ################################################################################
  #     valence basis states
      valence      2  s   2.
      valence      2  p   2.
  #     ion occupancy
      ion_occ      2  s   1.
      ion_occ      2  p   1.
  ################################################################################
  #
  #  Suggested additional basis functions. For production calculations,
  #  uncomment them one after another (the most important basis functions are
  #  listed first).
  #
  #  Constructed for dimers: 1.0 A, 1.25 A, 1.5 A, 2.0 A, 3.0 A
  #
  ################################################################################
  #  "First tier" - improvements: -1214.57 meV to -155.61 meV
       hydro 2 p 1.7
       hydro 3 d 6
       hydro 2 s 4.9
  #  "Second tier" - improvements: -67.75 meV to -5.23 meV
       hydro 4 f 9.8
       hydro 3 p 5.2
       hydro 3 s 4.3
       hydro 5 g 14.4
       hydro 3 d 6.2
  #  "Third tier" - improvements: -2.43 meV to -0.60 meV
  #     hydro 2 p 5.6
  #     hydro 2 s 1.4
  #     hydro 3 d 4.9
  #     hydro 4 f 11.2
  #  "Fourth tier" - improvements: -0.39 meV to -0.18 meV
  #     hydro 2 p 2.1
  #     hydro 5 g 16.4
  #     hydro 4 d 13.2
  #     hydro 3 s 13.6
  #     hydro 4 f 17.6
  #  Further basis functions - improvements: -0.08 meV and below
  #     hydro 3 s 2
  #     hydro 3 p 6
  #     hydro 4 d 20
  ################################################################################
  #
  # For methods that use the localized form of the "resolution of identity" for
  # the two-electron Coulomb operator (RI_method LVL), particularly Hartree-Fock and
  # hybrid density functional calculations, the highest accuracy can be obtained by
  # uncommenting the line beginning with "for_aux"  below, thus adding an extra g radial
  # function to the construction of the product basis set for the expansion.
  # See Ref. New J. Phys. 17, 093020 (2015) for more information, particularly Figs. 1 and 6.
  #
  ################################################################################
  #
  # for_aux hydro 5 g 6.0
  
  -----------------------------------------------------------------------
  Completed first pass over input file control.in .
  -----------------------------------------------------------------------
  
  
  -----------------------------------------------------------------------
  Parsing geometry.in (first pass over file, find array dimensions only).
  The contents of geometry.in will be repeated verbatim below
  unless switched off by setting 'verbatim_writeout .false.' .
  in the first line of geometry.in .
  -----------------------------------------------------------------------
  
  #=======================================================
  # FHI-aims file: geometry.in
  # Created using the Atomic Simulation Environment (ASE)
  # Sun Jun 20 15:47:01 2021
  #=======================================================
  atom 28.8467920000000007 26.2664639999999991 39.6904460000000014 H
  atom 27.8792049999999989 26.2038779999999996 39.1929230000000004 C
  atom 27.8477339999999991 25.7852919999999983 37.8737070000000031 C
  atom 26.6967800000000004 26.6839489999999984 39.8733270000000033 C
  atom 26.6276830000000011 25.7786389999999983 37.0961479999999995 C
  atom 28.7923270000000002 25.5456429999999983 37.3858680000000021 H
  atom 25.5232959999999984 26.4801059999999993 39.1762540000000001 C
  atom 26.5715930000000000 27.5775129999999997 41.0045819999999992 C
  atom 26.4310769999999984 25.8082899999999995 35.6624740000000031 C
  atom 25.4927540000000015 26.0362609999999997 37.8321150000000017 C
  atom 24.3408709999999999 27.2119229999999988 39.4215230000000005 C
  atom 25.4215669999999996 28.3123229999999992 41.2303250000000006 C
  atom 27.4384960000000007 27.7585839999999990 41.6405359999999973 H
  atom 25.2451669999999986 26.2528739999999985 35.0984339999999975 C
  atom 27.2609339999999989 25.5488800000000005 35.0030250000000009 H
  atom 24.2775800000000004 26.4812699999999985 37.2544219999999981 C
  atom 23.5667550000000006 27.2057719999999996 38.2381979999999970 C
  atom 24.2718899999999991 28.2198080000000004 40.3606899999999982 C
  atom 25.4258640000000007 29.0452919999999999 42.0375700000000023 H
  atom 25.1958120000000001 26.3576140000000017 34.0135339999999999 H
  atom 24.1305610000000001 26.7027409999999996 35.9010749999999987 C
  atom 22.6662900000000000 28.2014290000000010 37.9297460000000015 C
  atom 23.1846899999999998 29.1525740000000013 40.1511399999999981 C
  atom 23.0140969999999996 27.5642980000000009 35.5646830000000023 C
  atom 22.3223160000000007 28.2730969999999999 36.5273460000000014 C
  atom 22.4238129999999991 29.1434509999999989 38.9982949999999988 C
  atom 23.0165359999999986 29.9506440000000005 40.8718670000000017 H
  atom 22.7488579999999985 27.7210520000000002 34.5177249999999987 H
  atom 21.5428590000000000 28.9632509999999996 36.2030189999999976 H
  atom 21.6825620000000008 29.9301519999999996 38.8609760000000009 H
  
  -----------------------------------------------------------------------
  Completed first pass over input file geometry.in .
  -----------------------------------------------------------------------
  

  Basic array size parameters:
  | Number of species                 :        2
  | Number of atoms                   :       30
  | Max. basis fn. angular momentum   :        4
  | Max. atomic/ionic basis occupied n:        2
  | Max. number of basis fn. types    :        2
  | Max. radial fns per species/type  :        8
  | Max. logarithmic grid size        :     1277
  | Max. radial integration grid size :       69
  | Max. angular integration grid size:      434
  | Max. angular grid division number :        8
  | Radial grid for Hartree potential :     1277
  | Number of spin channels           :        1

------------------------------------------------------------
          Reading file control.in.
------------------------------------------------------------
  XC: Using PBE gradient-corrected functionals.
  Scalar relativistic treatment of kinetic energy: ZORA.
  Threshold value for ZORA:   0.100000E-11
  Occupation type: Gaussian broadening, width =   0.100000E-03 eV.
  Since 'load_balancing .true.' is present in control.in, automatically turning on 'use_local_index .true.'.
  Using load balancing for integrations.
  Kohn-Sham electronic structure solved by the ELSI library.
  Using pulay charge density mixing.
  Pulay mixing - number of memorized iterations:    5
  Charge density mixing - mixing parameter:     0.4000
  Convergence accuracy of total energy:  0.1000E-05
  Convergence accuracy of sum of eigenvalues:  0.1000E-03
  Convergence accuracy of self-consistent charge density:  0.1000E-05
  Maximum number of s.-c. iterations  :   100
  * Ignoring prodbas_threshold
  Threshold for basis singularities:  0.1000E-04
  override_illconditioning: Explicitly overriding any built-in checks for an ill-conditioned overlap matrix.
  *** WARNING: If you use this flag, you should really know what you are doing.
  *** DO NOT keep this flag set by default in all your control.in files.
  Using 1D integrations for auxiliary 2-center integrals.
  Spin treatment: No spin polarisation.
  Charge =   0.000000E+00: Neutral system requested explicitly.
 
  Reading configuration options for species H                   .
  | Found nuclear charge :   1.0000
  | Found atomic mass :    1.00794000000000      amu
  | Found l_max for Hartree potential  :   6
  | Found cutoff potl. onset [A], width [A], scale factor :    4.00000    2.00000    1.00000
  | Threshold for basis-dependent cutoff potential is   0.100000E-03
  | Found data for basic radial integration grid :    24 points, outermost radius =    7.000 A
  | Found multiplier for basic radial grid :   2
  | Found angular grid specification: user-specified.
  | Specified grid contains     6 separate shells.
  | Check grid settings after all constraints further below.
  | Found free-atom valence shell :  1 s   1.000
  | No ionic wave fns used. Skipping ion_occ.
  | Found hydrogenic basis function :  2 s   2.100
  | Found hydrogenic basis function :  2 p   3.500
  | Found hydrogenic basis function :  1 s   0.850
  | Found hydrogenic basis function :  2 p   3.700
  | Found hydrogenic basis function :  2 s   1.200
  | Found hydrogenic basis function :  3 d   7.000
  Species H                   : Missing cutoff potential type.
  Defaulting to exp(1/x)/(1-x)^2 type cutoff potential.
  Species H : No 'logarithmic' tag. Using default grid for free atom:
  | Default logarithmic grid data [bohr] : 0.1000E-03 0.1000E+03 0.1012E+01
  Species H : On-site basis accuracy parameter (for Gram-Schmidt orthonormalisation) not specified.
  Using default value basis_acc =  0.1000000E-03.
  Species H                   : Using default innermost maximum threshold i_radial=  2 for radial functions.
  Species H                   : Default cutoff onset for free atom density etc. : 0.40000000E+01 AA.
  Species H                   : Basic radial grid will be enhanced according to radial_multiplier =   2, to contain    49 grid points.
 
  Reading configuration options for species C                   .
  | Found nuclear charge :   6.0000
  | Found atomic mass :    12.0107000000000      amu
  | Found l_max for Hartree potential  :   6
  | Found cutoff potl. onset [A], width [A], scale factor :    4.00000    2.00000    1.00000
  | Threshold for basis-dependent cutoff potential is   0.100000E-03
  | Found data for basic radial integration grid :    34 points, outermost radius =    7.000 A
  | Found multiplier for basic radial grid :   2
  | Found angular grid specification: user-specified.
  | Specified grid contains     6 separate shells.
  | Check grid settings after all constraints further below.
  | Found free-atom valence shell :  2 s   2.000
  | Found free-atom valence shell :  2 p   2.000
  | No ionic wave fns used. Skipping ion_occ.
  | No ionic wave fns used. Skipping ion_occ.
  | Found hydrogenic basis function :  2 p   1.700
  | Found hydrogenic basis function :  3 d   6.000
  | Found hydrogenic basis function :  2 s   4.900
  | Found hydrogenic basis function :  4 f   9.800
  | Found hydrogenic basis function :  3 p   5.200
  | Found hydrogenic basis function :  3 s   4.300
  | Found hydrogenic basis function :  5 g  14.400
  | Found hydrogenic basis function :  3 d   6.200
  Species C                   : Missing cutoff potential type.
  Defaulting to exp(1/x)/(1-x)^2 type cutoff potential.
  Species C : No 'logarithmic' tag. Using default grid for free atom:
  | Default logarithmic grid data [bohr] : 0.1000E-03 0.1000E+03 0.1012E+01
  Species C : On-site basis accuracy parameter (for Gram-Schmidt orthonormalisation) not specified.
  Using default value basis_acc =  0.1000000E-03.
  Species C                   : Using default innermost maximum threshold i_radial=  2 for radial functions.
  Species C                   : Default cutoff onset for free atom density etc. : 0.40000000E+01 AA.
  Species C                   : Basic radial grid will be enhanced according to radial_multiplier =   2, to contain    69 grid points.
 
  Finished reading input file 'control.in'. Consistency checks are next.
 
  MPI_IN_PLACE appears to work with this MPI implementation.
  | Keeping use_mpi_in_place .true. (see manual).
  Target number of points in a grid batch is not set. Defaulting to  100
  Method for grid partitioning is not set. Defaulting to parallel hash+maxmin partitioning.
  Batch size limit is not set. Defaulting to    200
  By default, will store active basis functions for each batch.
  If in need of memory, prune_basis_once .false. can be used to disable this option.
  communication_type for Hartree potential was not specified.
  Defaulting to calc_hartree .
  Pulay mixer: Number of initial linear mixing iterations not set.
  Defaulting to    0 iterations.
  Work space size for distributed Hartree potential not set.
  Defaulting to   0.200000E+03 MB.
  Algorithm-dependent basis array size parameters:
  | n_max_pulay                         :        5
  Presetting      1001 iterations before the initial mixing cycle
  is restarted anyway using the sc_init_iter criterion / keyword.
  Presetting a factor      1.000 between actual scf density residual
  and density convergence criterion sc_accuracy_rho below which sc_init_iter
  takes no effect.
  Calculation of forces was not defined in control.in. No forces will be calculated.
  Geometry relaxation not requested: no relaxation will be performed.
  No accuracy limit for integral partition fn. given. Defaulting to  0.1000E-14.
  No threshold value for u(r) in integrations given. Defaulting to  0.1000E-05.
  No accuracy for occupation numbers given. Defaulting to  0.1000E-12.
  No threshold value for occupation numbers given. Defaulting to  0.0000E+00.
  No accuracy for fermi level given. Defaulting to  0.1000E-19.
  Maximum # of iterations to find E_F not set. Defaulting to  200.
  Will not use alltoall communication since running on < 1024 CPUs.
  partition_type (choice of integration weights) for integrals was not specified.
  | Using a version of the partition function of Stratmann and coworkers ('stratmann_sparse').
  | At each grid point, the set of atoms used to build the partition table is smoothly restricted to
  | only those atoms whose free-atom density would be non-zero at that grid point.
  Partitioning for Hartree potential was not defined. Using partition_type for integrals.
  | Adjusted default value of keyword multip_moments_threshold to:       0.10000000E-11
  | This value may affect high angular momentum components of the Hartree potential in periodic systems.
  No q(lm)/r^(l+1) cutoff set for long-range Hartree potential.
  | Using default value of  0.100000E-09 .
  | Verify using the multipole_threshold keyword.
  Defaulting to new monopole extrapolation.
  Density update method: automatic selection selected.
 * Warning: use_local_index and/or load_balancing needs packed_matrix_format = index
 * Changing the default setting to packed_matrix_format = index
------------------------------------------------------------


------------------------------------------------------------
          Reading geometry description geometry.in.
------------------------------------------------------------
  Input structure read successfully.
  The structure contains       30 atoms,  and a total of        130.000 electrons.

  Input geometry:
  | No unit cell requested.
  | Atomic structure:
  |       Atom                x [A]            y [A]            z [A]
  |    1: Species H            28.84679200       26.26646400       39.69044600
  |    2: Species C            27.87920500       26.20387800       39.19292300
  |    3: Species C            27.84773400       25.78529200       37.87370700
  |    4: Species C            26.69678000       26.68394900       39.87332700
  |    5: Species C            26.62768300       25.77863900       37.09614800
  |    6: Species H            28.79232700       25.54564300       37.38586800
  |    7: Species C            25.52329600       26.48010600       39.17625400
  |    8: Species C            26.57159300       27.57751300       41.00458200
  |    9: Species C            26.43107700       25.80829000       35.66247400
  |   10: Species C            25.49275400       26.03626100       37.83211500
  |   11: Species C            24.34087100       27.21192300       39.42152300
  |   12: Species C            25.42156700       28.31232300       41.23032500
  |   13: Species H            27.43849600       27.75858400       41.64053600
  |   14: Species C            25.24516700       26.25287400       35.09843400
  |   15: Species H            27.26093400       25.54888000       35.00302500
  |   16: Species C            24.27758000       26.48127000       37.25442200
  |   17: Species C            23.56675500       27.20577200       38.23819800
  |   18: Species C            24.27189000       28.21980800       40.36069000
  |   19: Species H            25.42586400       29.04529200       42.03757000
  |   20: Species H            25.19581200       26.35761400       34.01353400
  |   21: Species C            24.13056100       26.70274100       35.90107500
  |   22: Species C            22.66629000       28.20142900       37.92974600
  |   23: Species C            23.18469000       29.15257400       40.15114000
  |   24: Species C            23.01409700       27.56429800       35.56468300
  |   25: Species C            22.32231600       28.27309700       36.52734600
  |   26: Species C            22.42381300       29.14345100       38.99829500
  |   27: Species H            23.01653600       29.95064400       40.87186700
  |   28: Species H            22.74885800       27.72105200       34.51772500
  |   29: Species H            21.54285900       28.96325100       36.20301900
  |   30: Species H            21.68256200       29.93015200       38.86097600
  |

  | The smallest distance between any two atoms is         1.08841118 AA.
  |
  | The first atom of this pair is atom number                     23 .
  | The second atom of this pair is atom number                    27 .

  Number of empty states per atom not set in control.in - providing a guess from actual geometry.
  | Total number of empty states used during s.c.f. cycle:       75
  If you use a very high smearing, use empty_states (per atom!) in control.in to increase this value.

  Structure-dependent array size parameters: 
  | Maximum number of distinct radial functions  :       18
  | Maximum number of basis functions            :      930
  | Number of Kohn-Sham states (occupied + empty):      140
------------------------------------------------------------

------------------------------------------------------------
          Preparing all fixed parts of the calculation.
------------------------------------------------------------
  Determining machine precision:
    2.225073858507201E-308
  Setting up grids for atomic and cluster calculations.

  Creating wave function, potential, and density for free atoms.

  Species: H

  List of occupied orbitals and eigenvalues:
    n    l              occ      energy [Ha]    energy [eV]
    1    0           1.0000        -0.238386        -6.4868


  Species: C

  List of occupied orbitals and eigenvalues:
    n    l              occ      energy [Ha]    energy [eV]
    1    0           2.0000       -10.049212      -273.4530
    2    0           2.0000        -0.504761       -13.7352
    2    1           2.0000        -0.193631        -5.2690

  Creating fixed part of basis set: Ionic, confined, hydrogenic.
 
  H                    hydrogenic:
 
  List of hydrogenic basis orbitals: 
    n    l      effective z      eigenvalue [eV]  inner max. [A]     outer max. [A]     outer radius [A]   
    2    0         2.100000       -14.9965           0.193243           1.317208           5.373006
    2    1         3.500000       -41.6672           0.602369           0.602369           4.056063
    1    0         0.850000        -9.8292           0.624871           0.624871           5.373006
    2    1         3.700000       -46.5653           0.573622           0.573622           3.910002
    2    0         1.200000        -4.5995           0.334980           2.228188           5.505995
    3    2         7.000000       -74.0753           0.680699           0.680699           3.769201
 
 
  C                    hydrogenic:
 
  List of hydrogenic basis orbitals: 
    n    l      effective z      eigenvalue [eV]  inner max. [A]     outer max. [A]     outer radius [A]   
    2    1         1.700000        -9.8152           1.245706           1.245706           5.401630
    3    2         6.000000       -54.4226           0.792453           0.792453           4.178599
    2    0         4.900000       -81.6681           0.082559           0.562749           3.353238
    4    3         9.800000       -81.6681           0.863254           0.863254           4.028125
    3    1         5.200000       -40.8774           0.305389           1.215618           4.898362
    3    0         4.300000       -27.9508           0.091041           1.610311           5.401630
    5    4        14.400000      -112.8510           0.917666           0.917666           3.883070
    3    2         6.200000       -58.1113           0.763917           0.763917           4.077671
 

  Adding cutoff potential to free-atom effective potential.
  Creating atomic-like basis functions for current effective potential.

  Species H                   :

  List of atomic basis orbitals and eigenvalues:
    n    l      energy [Ha]    energy [eV]    outer radius [A]
    1    0        -0.238386        -6.4868       5.373006


  Species C                   :

  List of atomic basis orbitals and eigenvalues:
    n    l      energy [Ha]    energy [eV]    outer radius [A]
    1    0       -10.049212      -273.4530       1.934409
    2    0        -0.504761       -13.7352       5.271162
    2    1        -0.193631        -5.2690       5.401630

  Assembling full basis from fixed parts.
  | Species H :   atomic orbital   1 s accepted.
  | Species H :    hydro orbital   2 s accepted.
  | Species H :    hydro orbital   1 s accepted.
  | Species H :    hydro orbital   2 s accepted.
  | Species H :    hydro orbital   2 p accepted.
  | Species H :    hydro orbital   2 p accepted.
  | Species H :    hydro orbital   3 d accepted.
  | Species C :   atomic orbital   1 s accepted.
  | Species C :    hydro orbital   2 s accepted.
  | Species C :   atomic orbital   2 s accepted.
  | Species C :    hydro orbital   3 s accepted.
  | Species C :    hydro orbital   3 p accepted.
  | Species C :   atomic orbital   2 p accepted.
  | Species C :    hydro orbital   2 p accepted.
  | Species C :    hydro orbital   3 d accepted.
  | Species C :    hydro orbital   3 d accepted.
  | Species C :    hydro orbital   4 f accepted.
  | Species C :    hydro orbital   5 g accepted.
 
  Basis size parameters after reduction:
  | Total number of radial functions:       18
  | Total number of basis functions :      930
 
  Per-task memory consumption for arrays in subroutine allocate_ext:
  |           4.435456MB.
  Testing on-site integration grid accuracy.
  |  Species  Function  <phi|h_atom|phi> (log., in eV)  <phi|h_atom|phi> (rad., in eV)
           1        1                 -6.4870767962                 -6.4871688290
           1        2                 13.5032046589                 13.5028982997
           1        3                 32.8195184817                 32.8119941656
           1        4                 33.8513856511                 33.7670005767 ***
           1        5                 28.8544614965                 28.8544615203
           1        6                 59.6326952547                 59.6327656460
           1        7                 60.2719308513                 60.2719305949
           2        8               -273.4529726040               -273.4529710464
           2        9                -10.7721037319                -10.7721022101
           2       10                 17.6044132601                 17.6044162063
           2       11                 53.7706460658                 53.7706913770
           2       12                 15.0973290362                 15.0973256030
           2       13                  3.8545134692                  3.8545724687
           2       14                 12.1156992592                 12.1182024431
           2       15                 29.4352039302                 29.4352041816
           2       16                 54.8741144708                 54.8740268729
           2       17                 59.3556032049                 59.3556031382
           2       18                 93.4551837154                 93.4551838009
 * Note: Onsite integrals marked "***" above are less accurate than
 * onsite_accuracy_threshold =    0.03000 eV. Usually, this is harmless.
 * When in doubt, tighten the "radial" and/or "radial_multiplier" flags to check.

  Preparing densities etc. for the partition functions (integrals / Hartree potential).

  Preparations completed.
  max(cpu_time)          :      0.221 s.
  Wall clock time (cpu1) :      0.248 s.
------------------------------------------------------------

------------------------------------------------------------
          Begin self-consistency loop: Initialization.

          Date     :  20210620, Time     :  163940.978
------------------------------------------------------------

  Initializing index lists of integration centers etc. from given atomic structure:
  | Number of centers in hartree potential         :        30
  | Number of centers in hartree multipole         :        30
  | Number of centers in electron density summation:        30
  | Number of centers in basis integrals           :        30
  | Number of centers in integrals                 :        30
  | Number of centers in hamiltonian               :        30
  * Using 56 tasks for Scalapack Eigenvalue solver.
  Detailed listing of tasks and assigned k-points:
  (for non-periodic systems, the "k-point" denotes an internal label only)
   Task     0 k-point     1 on d021
   Task     1 k-point     1 on d021
   Task     2 k-point     1 on d021
   Task     3 k-point     1 on d021
   Task     4 k-point     1 on d021
   Task     5 k-point     1 on d021
   Task     6 k-point     1 on d021
   Task     7 k-point     1 on d021
   Task     8 k-point     1 on d021
   Task     9 k-point     1 on d021
   Task    10 k-point     1 on d021
   Task    11 k-point     1 on d021
   Task    12 k-point     1 on d021
   Task    13 k-point     1 on d021
   Task    14 k-point     1 on d021
   Task    15 k-point     1 on d021
   Task    16 k-point     1 on d021
   Task    17 k-point     1 on d021
   Task    18 k-point     1 on d021
   Task    19 k-point     1 on d021
   Task    20 k-point     1 on d021
   Task    21 k-point     1 on d021
   Task    22 k-point     1 on d021
   Task    23 k-point     1 on d021
   Task    24 k-point     1 on d021
   Task    25 k-point     1 on d021
   Task    26 k-point     1 on d021
   Task    27 k-point     1 on d021
   Task    28 k-point     1 on d021
   Task    29 k-point     1 on d021
   Task    30 k-point     1 on d021
   Task    31 k-point     1 on d021
   Task    32 k-point     1 on d021
   Task    33 k-point     1 on d021
   Task    34 k-point     1 on d021
   Task    35 k-point     1 on d021
   Task    36 k-point     1 on d021
   Task    37 k-point     1 on d021
   Task    38 k-point     1 on d021
   Task    39 k-point     1 on d021
   Task    40 k-point     1 on d021
   Task    41 k-point     1 on d021
   Task    42 k-point     1 on d021
   Task    43 k-point     1 on d021
   Task    44 k-point     1 on d021
   Task    45 k-point     1 on d021
   Task    46 k-point     1 on d021
   Task    47 k-point     1 on d021
   Task    48 k-point     1 on d021
   Task    49 k-point     1 on d021
   Task    50 k-point     1 on d021
   Task    51 k-point     1 on d021
   Task    52 k-point     1 on d021
   Task    53 k-point     1 on d021
   Task    54 k-point     1 on d021
   Task    55 k-point     1 on d021
  Tasks:    56 split into      8 X      7 BLACS grid
  Calculating block size based on n_basis =          930 max_nprow =            8 max_npcol =            7
  ScaLAPACK block size set to:           16
  Allocating        0.147 MB for ovlp
  Allocating        0.147 MB for ham
  Allocating        0.147 MB for eigenvec
  Required Scalapack workspace - INTEGER:            1 REAL:             1
  Partitioning the integration grid into batches with parallel hashing+maxmin method.
  | Number of batches:     4723
  | Maximal batch size:     199
  | Minimal batch size:       2
  | Average batch size:     107.148
  | Standard deviation of batch sizes:      38.659

  Integration load balanced across     56 MPI tasks.
  Work distribution over tasks is as follows:
  Task      0 has       9149 integration points.
  Task      1 has       9045 integration points.
  Task      2 has       9018 integration points.
  Task      3 has       9199 integration points.
  Task      4 has       8964 integration points.
  Task      5 has       9037 integration points.
  Task      6 has       8946 integration points.
  Task      7 has       9103 integration points.
  Task      8 has       9089 integration points.
  Task      9 has       8994 integration points.
  Task     10 has       9064 integration points.
  Task     11 has       8977 integration points.
  Task     12 has       9036 integration points.
  Task     13 has       8996 integration points.
  Task     14 has       9105 integration points.
  Task     15 has       9196 integration points.
  Task     16 has       8967 integration points.
  Task     17 has       9069 integration points.
  Task     18 has       9032 integration points.
  Task     19 has       9079 integration points.
  Task     20 has       8876 integration points.
  Task     21 has       9165 integration points.
  Task     22 has       9092 integration points.
  Task     23 has       8835 integration points.
  Task     24 has       9099 integration points.
  Task     25 has       8993 integration points.
  Task     26 has       9081 integration points.
  Task     27 has       8932 integration points.
  Task     28 has       9061 integration points.
  Task     29 has       9068 integration points.
  Task     30 has       9019 integration points.
  Task     31 has       9061 integration points.
  Task     32 has       9034 integration points.
  Task     33 has       9075 integration points.
  Task     34 has       8938 integration points.
  Task     35 has       9123 integration points.
  Task     36 has       9106 integration points.
  Task     37 has       8960 integration points.
  Task     38 has       9088 integration points.
  Task     39 has       8954 integration points.
  Task     40 has       9082 integration points.
  Task     41 has       8943 integration points.
  Task     42 has       9067 integration points.
  Task     43 has       9063 integration points.
  Task     44 has       9013 integration points.
  Task     45 has       9060 integration points.
  Task     46 has       9059 integration points.
  Task     47 has       9157 integration points.
  Task     48 has       8868 integration points.
  Task     49 has       9086 integration points.
  Task     50 has       9118 integration points.
  Task     51 has       8913 integration points.
  Task     52 has       9070 integration points.
  Task     53 has       8997 integration points.
  Task     54 has       9033 integration points.
  Task     55 has       8906 integration points.
  Initializing partition tables, free-atom densities, potentials, etc. across the integration grid (initialize_grid_storage).
  | initialize_grid_storage: Actual outermost partition radius vs. multipole_radius_free
  | (-- VB: in principle, multipole_radius_free should be larger, hence this output)
  | Species        1: Confinement radius =              6.000000000000000 AA, multipole_radius_free =              6.071692442739658 AA.
  | Species        1: outer_partition_radius set to              6.071692442739658 AA .
  | Species        2: Confinement radius =              6.000000000000000 AA, multipole_radius_free =              6.029870734432609 AA.
  | Species        2: outer_partition_radius set to              6.029870734432609 AA .
  | The sparse table of interatomic distances needs     10.5640 kbyte instead of     7.2000 kbyte of memory.
  | Using the partition_type stratmann_smoother will reduce your memory usage.
  | Net number of integration points:   506060
  | of which are non-zero points    :   408722
  Renormalizing the initial density to the exact electron count on the 3D integration grid.
  | Initial density: Formal number of electrons (from input files) :     130.0000000000
  | Integrated number of electrons on 3D grid     :     129.9999787168
  | Charge integration error                      :      -0.0000212832
  | Normalization factor for density and gradient :       1.0000001637
  Obtaining max. number of non-zero basis functions in each batch (get_n_compute_maxes).
  | Maximal number of non-zero basis functions:      883
  Selecting the method for density update.
  Loop over occupied states selected for charge density update.
  Hamiltonian matrix size:
  | Size of matrix non-packed:                432915
  | Size of matrix packed:          431079
  Allocating        1.042 MB for KS_eigenvector
  use_local_index: Max. local matrix size =       428500
  Task:     0 matrix size:     177906
  Task:     1 matrix size:     208980
  Task:     2 matrix size:     234195
  Task:     3 matrix size:     336459
  Task:     4 matrix size:     336447
  Task:     5 matrix size:     383751
  Task:     6 matrix size:     397685
  Task:     7 matrix size:     117855
  Task:     8 matrix size:     150912
  Task:     9 matrix size:     267483
  Task:    10 matrix size:     233539
  Task:    11 matrix size:     389806
  Task:    12 matrix size:     147153
  Task:    13 matrix size:     375066
  Task:    14 matrix size:     236328
  Task:    15 matrix size:     119316
  Task:    16 matrix size:     186292
  Task:    17 matrix size:     320983
  Task:    18 matrix size:     385475
  Task:    19 matrix size:     189420
  Task:    20 matrix size:     213468
  Task:    21 matrix size:     233523
  Task:    22 matrix size:     232185
  Task:    23 matrix size:     274631
  Task:    24 matrix size:     401094
  Task:    25 matrix size:     428500
  Task:    26 matrix size:     341228
  Task:    27 matrix size:     404593
  Task:    28 matrix size:     415333
  Task:    29 matrix size:     345596
  Task:    30 matrix size:     417885
  Task:    31 matrix size:     335702
  Task:    32 matrix size:     220780
  Task:    33 matrix size:     374098
  Task:    34 matrix size:     268918
  Task:    35 matrix size:     367250
  Task:    36 matrix size:     320912
  Task:    37 matrix size:     265193
  Task:    38 matrix size:     186958
  Task:    39 matrix size:     126253
  Task:    40 matrix size:     260961
  Task:    41 matrix size:     200003
  Task:    42 matrix size:     383847
  Task:    43 matrix size:     280044
  Task:    44 matrix size:     181495
  Task:    45 matrix size:     325105
  Task:    46 matrix size:     255937
  Task:    47 matrix size:     191890
  Task:    48 matrix size:     160461
  Task:    49 matrix size:     389006
  Task:    50 matrix size:     403792
  Task:    51 matrix size:     382902
  Task:    52 matrix size:     228141
  Task:    53 matrix size:     160458
  Task:    54 matrix size:     183292
  Task:    55 matrix size:     151525
  Integrating Hamiltonian matrix: batch-based integration.
  Time summed over all CPUs for integration: real work       82.064 s, elapsed      156.005 s
  Time get_set_sparse_local_matrix_scalapack:     0.017452 s
  Start compute_balanced_batch_distribution
  Done load balancing, time needed:      0.007 s
  Integrating overlap matrix with loadbalancing
  Time summed over all CPUs for integration: real work       23.728 s, elapsed       28.039 s
  Time get_set_full_local_matrix_scalapack:     0.010977 s

  Updating Kohn-Sham eigenvalues and eigenvectors using ELSI and the ELPA eigensolver.
  Overlap matrix is not singular
  | Lowest and highest eigenvalues :  0.12E+02,  0.96E-04
  Finished singularity check of overlap matrix
  | Time :     0.076 s
  Finished Cholesky decomposition
  | Time :     0.015 s
  Finished transformation to standard eigenproblem
  | Time :     0.007 s
  Starting ELPA eigensolver
  Finished solving standard eigenproblem
  | Time :     0.055 s
  Finished back-transformation of eigenvectors
  | Time :     0.003 s

  Obtaining occupation numbers and chemical potential using ELSI.
  | Chemical potential (Fermi level):    -8.71462027 eV
  Writing Kohn-Sham eigenvalues.

  State    Occupation    Eigenvalue [Ha]    Eigenvalue [eV]
      1       2.00000         -10.176396         -276.91382
      2       2.00000         -10.176082         -276.90527
      3       2.00000         -10.175827         -276.89835
      4       2.00000         -10.175573         -276.89143
      5       2.00000         -10.175326         -276.88471
      6       2.00000         -10.164959         -276.60260
      7       2.00000         -10.164620         -276.59339
      8       2.00000         -10.164495         -276.58997
      9       2.00000         -10.164449         -276.58874
     10       2.00000         -10.164354         -276.58616
     11       2.00000         -10.164237         -276.58295
     12       2.00000         -10.164142         -276.58037
     13       2.00000         -10.164073         -276.57851
     14       2.00000         -10.164048         -276.57782
     15       2.00000         -10.163939         -276.57485
     16       2.00000         -10.163649         -276.56697
     17       2.00000         -10.163575         -276.56494
     18       2.00000         -10.163527         -276.56365
     19       2.00000         -10.163472         -276.56216
     20       2.00000         -10.162981         -276.54878
     21       2.00000          -1.055858          -28.73137
     22       2.00000          -0.988216          -26.89073
     23       2.00000          -0.987660          -26.87559
     24       2.00000          -0.940666          -25.59681
     25       2.00000          -0.929272          -25.28678
     26       2.00000          -0.928868          -25.27579
     27       2.00000          -0.866463          -23.57766
     28       2.00000          -0.865686          -23.55653
     29       2.00000          -0.857946          -23.34591
     30       2.00000          -0.857606          -23.33664
     31       2.00000          -0.783099          -21.30921
     32       2.00000          -0.773728          -21.05420
     33       2.00000          -0.773280          -21.04202
     34       2.00000          -0.736863          -20.05107
     35       2.00000          -0.736710          -20.04689
     36       2.00000          -0.706646          -19.22883
     37       2.00000          -0.660865          -17.98306
     38       2.00000          -0.660574          -17.97514
     39       2.00000          -0.660354          -17.96914
     40       2.00000          -0.647112          -17.60880
     41       2.00000          -0.646381          -17.58891
     42       2.00000          -0.604377          -16.44593
     43       2.00000          -0.604078          -16.43780
     44       2.00000          -0.574024          -15.62000
     45       2.00000          -0.573665          -15.61022
     46       2.00000          -0.572542          -15.57967
     47       2.00000          -0.571600          -15.55403
     48       2.00000          -0.568051          -15.45747
     49       2.00000          -0.552083          -15.02294
     50       2.00000          -0.551831          -15.01608
     51       2.00000          -0.551171          -14.99811
     52       2.00000          -0.522171          -14.20900
     53       2.00000          -0.506748          -13.78931
     54       2.00000          -0.505480          -13.75481
     55       2.00000          -0.490019          -13.33410
     56       2.00000          -0.489285          -13.31412
     57       2.00000          -0.487843          -13.27489
     58       2.00000          -0.487079          -13.25408
     59       2.00000          -0.443488          -12.06791
     60       2.00000          -0.436001          -11.86418
     61       2.00000          -0.435540          -11.85165
     62       2.00000          -0.376630          -10.24861
     63       2.00000          -0.376034          -10.23239
     64       2.00000          -0.375779          -10.22547
     65       2.00000          -0.374941          -10.20266
     66       0.00000          -0.254640           -6.92911
     67       0.00000          -0.253807           -6.90644
     68       0.00000          -0.206330           -5.61451
     69       0.00000          -0.191743           -5.21760
     70       0.00000          -0.185594           -5.05026
     71       0.00000          -0.185542           -5.04885
     72       0.00000          -0.119419           -3.24955
     73       0.00000          -0.118806           -3.23288
     74       0.00000          -0.065118           -1.77195
     75       0.00000          -0.053733           -1.46215
     76       0.00000          -0.053439           -1.45415
     77       0.00000          -0.045432           -1.23627
     78       0.00000          -0.045104           -1.22735
     79       0.00000          -0.031674           -0.86189
     80       0.00000          -0.031268           -0.85086
     81       0.00000          -0.022269           -0.60596
     82       0.00000          -0.021430           -0.58314
     83       0.00000          -0.015021           -0.40874
     84       0.00000          -0.014765           -0.40178
     85       0.00000          -0.014178           -0.38581
     86       0.00000          -0.004435           -0.12069
     87       0.00000           0.013133            0.35738
     88       0.00000           0.013717            0.37325
     89       0.00000           0.031868            0.86716
     90       0.00000           0.034069            0.92707
     91       0.00000           0.034419            0.93659
     92       0.00000           0.040125            1.09185
     93       0.00000           0.041173            1.12037
     94       0.00000           0.044691            1.21611
     95       0.00000           0.047826            1.30143
     96       0.00000           0.048058            1.30771
     97       0.00000           0.063908            1.73903
     98       0.00000           0.073426            1.99801
     99       0.00000           0.073769            2.00736
    100       0.00000           0.074946            2.03939
    101       0.00000           0.076002            2.06813
    102       0.00000           0.088935            2.42003
    103       0.00000           0.089410            2.43296
    104       0.00000           0.097466            2.65219
    105       0.00000           0.100953            2.74706
    106       0.00000           0.101229            2.75458
    107       0.00000           0.106580            2.90019
    108       0.00000           0.109615            2.98278
    109       0.00000           0.109737            2.98610
    110       0.00000           0.113955            3.10088
    111       0.00000           0.117120            3.18699
    112       0.00000           0.125456            3.41383
    113       0.00000           0.126343            3.43796
    114       0.00000           0.129572            3.52584
    115       0.00000           0.130219            3.54343
    116       0.00000           0.143679            3.90970
    117       0.00000           0.144119            3.92169
    118       0.00000           0.151737            4.12897
    119       0.00000           0.152385            4.14660
    120       0.00000           0.163649            4.45313
    121       0.00000           0.164418            4.47405
    122       0.00000           0.170042            4.62709
    123       0.00000           0.170920            4.65097
    124       0.00000           0.176690            4.80798
    125       0.00000           0.189227            5.14913
    126       0.00000           0.197988            5.38754
    127       0.00000           0.199344            5.42442
    128       0.00000           0.208721            5.67958
    129       0.00000           0.209176            5.69198
    130       0.00000           0.221001            6.01375
    131       0.00000           0.222208            6.04660
    132       0.00000           0.226258            6.15680
    133       0.00000           0.227424            6.18853
    134       0.00000           0.236028            6.42264
    135       0.00000           0.237202            6.45460
    136       0.00000           0.246544            6.70881
    137       0.00000           0.246662            6.71202
    138       0.00000           0.246948            6.71979
    139       0.00000           0.249712            6.79500
    140       0.00000           0.249933            6.80104

  Highest occupied state (VBM) at    -10.20265988 eV
  | Occupation number:      2.00000000

  Lowest unoccupied state (CBM) at    -6.92910776 eV
  | Occupation number:      0.00000000

  Overall HOMO-LUMO gap:      3.27355212 eV.
  Calculating total energy contributions from superposition of free atom densities.

  Total energy components:
  | Sum of eigenvalues            :        -464.86807087 Ha      -12649.70381810 eV
  | XC energy correction          :        -109.65709627 Ha       -2983.92140977 eV
  | XC potential correction       :         140.84961558 Ha        3832.71304629 eV
  | Free-atom electrostatic energy:        -335.03547970 Ha       -9116.77925919 eV
  | Hartree energy correction     :           0.00000000 Ha           0.00000000 eV
  | Entropy correction            :           0.00000000 Ha           0.00000000 eV
  | ---------------------------
  | Total energy                  :        -768.71103125 Ha      -20917.69144077 eV
  | Total energy, T -> 0          :        -768.71103125 Ha      -20917.69144077 eV  <-- do not rely on this value for anything but (periodic) metals
  | Electronic free energy        :        -768.71103125 Ha      -20917.69144077 eV

  Derived energy quantities:
  | Kinetic energy                :         762.24578374 Ha       20741.76310498 eV
  | Electrostatic energy          :       -1421.29971873 Ha      -38675.53313598 eV
  | Energy correction for multipole
  | error in Hartree potential    :           0.00000000 Ha           0.00000000 eV
  | Sum of eigenvalues per atom                           :        -421.65679394 eV
  | Total energy (T->0) per atom                          :        -697.25638136 eV  <-- do not rely on this value for anything but (periodic) metals
  | Electronic free energy per atom                       :        -697.25638136 eV
  Initialize hartree_potential_storage
  Max. number of atoms included in rho_multipole:           30

  End scf initialization - timings             :  max(cpu_time)    wall_clock(cpu1)
  | Time for scf. initialization               :        4.563 s           5.529 s
  | Boundary condition initialization          :        0.001 s           0.031 s
  | Integration                                :        3.337 s           3.872 s
  | Solution of K.-S. eqns.                    :        0.155 s           0.369 s
  | Grid partitioning                          :        0.595 s           0.609 s
  | Preloading free-atom quantities on grid    :        0.025 s           0.054 s
  | Free-atom superposition energy             :        0.050 s           0.051 s
  | Total energy evaluation                    :        0.001 s           0.008 s

  Partial memory accounting:
  | Current value for overall tracked memory usage on task 0  :           2.196 MB
  | Peak value for overall tracked memory usage on task 0     :          22.530 MB after allocating zora_vector2
  | Largest tracked array allocation on task 0 so far         :           6.238 MB  when allocating hamiltonian_shell
  Note:  These values currently only include a subset of arrays which are explicitly tracked.
  The "true" memory usage will be greater.
------------------------------------------------------------

------------------------------------------------------------
          Begin self-consistency iteration #    1

  Date     :  20210620, Time     :  163946.512
------------------------------------------------------------
  Evaluating new KS density.
  Integration grid: deviation in total charge (<rho> - N_e) =   5.684342E-14
  Pulay mixing of updated and previous charge densities.

  Evaluating partitioned Hartree potential by multipole expansion.
  | Analytical far-field extrapolation by fixed multipoles:
  | Hartree multipole sum: apparent total charge =  -0.268718E-04
  Summing up the Hartree potential with load balancing.
  Time summed over all CPUs for potential: real work       12.165 s, elapsed       18.482 s
  | RMS charge density error from multipole expansion :   0.106453E-01

  Start compute_balanced_batch_distribution
  Done load balancing, time needed:      0.003 s
  Integrating Hamiltonian matrix: batch-based integration with load balancing
  Time summed over all CPUs for integration: real work       88.826 s, elapsed       99.038 s
  Time get_set_full_local_matrix_scalapack:     0.010037 s
  Start compute_balanced_batch_distribution
  Done load balancing, time needed:      0.004 s

  Updating Kohn-Sham eigenvalues and eigenvectors using ELSI and the ELPA eigensolver.
  Finished transformation to standard eigenproblem
  | Time :     0.008 s
  Starting ELPA eigensolver
  Finished solving standard eigenproblem
  | Time :     0.042 s
  Finished back-transformation of eigenvectors
  | Time :     0.002 s

  Obtaining occupation numbers and chemical potential using ELSI.
  | Chemical potential (Fermi level):    -5.72911252 eV
  Writing Kohn-Sham eigenvalues.

  State    Occupation    Eigenvalue [Ha]    Eigenvalue [eV]
      1       2.00000          -9.975669         -271.45177
      2       2.00000          -9.975345         -271.44295
      3       2.00000          -9.974944         -271.43205
      4       2.00000          -9.974734         -271.42633
      5       2.00000          -9.974293         -271.41431
      6       2.00000          -9.963970         -271.13342
      7       2.00000          -9.963225         -271.11314
      8       2.00000          -9.963136         -271.11074
      9       2.00000          -9.963052         -271.10844
     10       2.00000          -9.962782         -271.10110
     11       2.00000          -9.962463         -271.09240
     12       2.00000          -9.962396         -271.09059
     13       2.00000          -9.962337         -271.08899
     14       2.00000          -9.961845         -271.07560
     15       2.00000          -9.961742         -271.07278
     16       2.00000          -9.934207         -270.32354
     17       2.00000          -9.933874         -270.31447
     18       2.00000          -9.933779         -270.31189
     19       2.00000          -9.933496         -270.30418
     20       2.00000          -9.933371         -270.30079
     21       2.00000          -0.881288          -23.98105
     22       2.00000          -0.833711          -22.68643
     23       2.00000          -0.833472          -22.67992
     24       2.00000          -0.783641          -21.32396
     25       2.00000          -0.783129          -21.31003
     26       2.00000          -0.782903          -21.30387
     27       2.00000          -0.722403          -19.65758
     28       2.00000          -0.721881          -19.64338
     29       2.00000          -0.702334          -19.11148
     30       2.00000          -0.702174          -19.10712
     31       2.00000          -0.633711          -17.24415
     32       2.00000          -0.633244          -17.23145
     33       2.00000          -0.628410          -17.09990
     34       2.00000          -0.591131          -16.08549
     35       2.00000          -0.590837          -16.07750
     36       2.00000          -0.580027          -15.78334
     37       2.00000          -0.518132          -14.09909
     38       2.00000          -0.517933          -14.09367
     39       2.00000          -0.514885          -14.01072
     40       2.00000          -0.507835          -13.81889
     41       2.00000          -0.507422          -13.80766
     42       2.00000          -0.463017          -12.59933
     43       2.00000          -0.462765          -12.59247
     44       2.00000          -0.439505          -11.95953
     45       2.00000          -0.439423          -11.95730
     46       2.00000          -0.436344          -11.87353
     47       2.00000          -0.426434          -11.60386
     48       2.00000          -0.425811          -11.58690
     49       2.00000          -0.417939          -11.37271
     50       2.00000          -0.417660          -11.36510
     51       2.00000          -0.413022          -11.23891
     52       2.00000          -0.399195          -10.86264
     53       2.00000          -0.377460          -10.27122
     54       2.00000          -0.376602          -10.24787
     55       2.00000          -0.350516           -9.53803
     56       2.00000          -0.349978           -9.52338
     57       2.00000          -0.342707           -9.32554
     58       2.00000          -0.341873           -9.30285
     59       2.00000          -0.315750           -8.59200
     60       2.00000          -0.315279           -8.57919
     61       2.00000          -0.314491           -8.55772
     62       2.00000          -0.254640           -6.92912
     63       2.00000          -0.253844           -6.90744
     64       2.00000          -0.239340           -6.51276
     65       2.00000          -0.238636           -6.49362
     66       0.00000          -0.130784           -3.55882
     67       0.00000          -0.129861           -3.53371
     68       0.00000          -0.082334           -2.24043
     69       0.00000          -0.076316           -2.07666
     70       0.00000          -0.057391           -1.56170
     71       0.00000          -0.057100           -1.55378
     72       0.00000          -0.023101           -0.62861
     73       0.00000          -0.016944           -0.46108
     74       0.00000          -0.016658           -0.45328
     75       0.00000          -0.002796           -0.07609
     76       0.00000          -0.002595           -0.07063
     77       0.00000           0.003934            0.10704
     78       0.00000           0.004485            0.12203
     79       0.00000           0.016686            0.45405
     80       0.00000           0.016859            0.45875
     81       0.00000           0.043675            1.18845
     82       0.00000           0.044049            1.19862
     83       0.00000           0.062817            1.70934
     84       0.00000           0.076763            2.08883
     85       0.00000           0.083889            2.28274
     86       0.00000           0.086196            2.34550
     87       0.00000           0.086781            2.36143
     88       0.00000           0.088776            2.41571
     89       0.00000           0.088917            2.41956
     90       0.00000           0.094001            2.55789
     91       0.00000           0.115590            3.14536
     92       0.00000           0.115950            3.15516
     93       0.00000           0.121723            3.31225
     94       0.00000           0.122454            3.33214
     95       0.00000           0.122799            3.34154
     96       0.00000           0.122986            3.34663
     97       0.00000           0.131515            3.57869
     98       0.00000           0.144489            3.93174
     99       0.00000           0.145694            3.96453
    100       0.00000           0.148121            4.03059
    101       0.00000           0.148712            4.04666
    102       0.00000           0.161377            4.39130
    103       0.00000           0.162077            4.41035
    104       0.00000           0.171161            4.65754
    105       0.00000           0.171678            4.67159
    106       0.00000           0.172203            4.68588
    107       0.00000           0.173266            4.71482
    108       0.00000           0.173410            4.71871
    109       0.00000           0.180859            4.92141
    110       0.00000           0.190963            5.19638
    111       0.00000           0.193453            5.26413
    112       0.00000           0.194196            5.28435
    113       0.00000           0.194529            5.29340
    114       0.00000           0.194664            5.29707
    115       0.00000           0.204795            5.57274
    116       0.00000           0.204975            5.57765
    117       0.00000           0.218662            5.95011
    118       0.00000           0.219428            5.97094
    119       0.00000           0.220836            6.00926
    120       0.00000           0.222895            6.06529
    121       0.00000           0.223402            6.07908
    122       0.00000           0.231601            6.30218
    123       0.00000           0.232390            6.32365
    124       0.00000           0.241950            6.58378
    125       0.00000           0.274408            7.46702
    126       0.00000           0.274674            7.47427
    127       0.00000           0.276885            7.53443
    128       0.00000           0.277384            7.54801
    129       0.00000           0.286616            7.79921
    130       0.00000           0.288184            7.84188
    131       0.00000           0.288778            7.85804
    132       0.00000           0.299269            8.14353
    133       0.00000           0.299857            8.15953
    134       0.00000           0.304794            8.29388
    135       0.00000           0.306784            8.34802
    136       0.00000           0.311327            8.47163
    137       0.00000           0.335424            9.12735
    138       0.00000           0.336096            9.14563
    139       0.00000           0.341498            9.29262
    140       0.00000           0.354384            9.64327

  Highest occupied state (VBM) at     -6.49361791 eV
  | Occupation number:      2.00000000

  Lowest unoccupied state (CBM) at    -3.55881641 eV
  | Occupation number:      0.00000000

  Overall HOMO-LUMO gap:      2.93480150 eV.

  Total energy components:
  | Sum of eigenvalues            :        -443.90679079 Ha      -12079.31836630 eV
  | XC energy correction          :        -110.95664945 Ha       -3019.28405102 eV
  | XC potential correction       :         142.53826322 Ha        3878.66348636 eV
  | Free-atom electrostatic energy:        -335.03547970 Ha       -9116.77925919 eV
  | Hartree energy correction     :         -20.72896473 Ha        -564.06382968 eV
  | Entropy correction            :           0.00000000 Ha           0.00000000 eV
  | ---------------------------
  | Total energy                  :        -768.08962145 Ha      -20900.78201983 eV
  | Total energy, T -> 0          :        -768.08962145 Ha      -20900.78201983 eV  <-- do not rely on this value for anything but (periodic) metals
  | Electronic free energy        :        -768.08962145 Ha      -20900.78201983 eV

  Derived energy quantities:
  | Kinetic energy                :         767.87131909 Ha       20894.84171038 eV
  | Electrostatic energy          :       -1425.00429110 Ha      -38776.33967919 eV
  | Energy correction for multipole
  | error in Hartree potential    :          -0.04879847 Ha          -1.32787395 eV
  | Sum of eigenvalues per atom                           :        -402.64394554 eV
  | Total energy (T->0) per atom                          :        -696.69273399 eV  <-- do not rely on this value for anything but (periodic) metals
  | Electronic free energy per atom                       :        -696.69273399 eV

  Self-consistency convergence accuracy:
  | Change of charge density      :  0.8563E+00
  | Change of sum of eigenvalues  :  0.5704E+03 eV
  | Change of total energy        :  0.1691E+02 eV

  End self-consistency iteration #     1       :  max(cpu_time)    wall_clock(cpu1)
  | Time for this iteration                    :        2.906 s           2.986 s
  | Charge density update                      :        0.691 s           0.695 s
  | Density mixing                             :        0.003 s           0.049 s
  | Hartree multipole update                   :        0.011 s           0.013 s
  | Hartree multipole summation                :        0.337 s           0.364 s
  | Integration                                :        1.773 s           1.773 s
  | Solution of K.-S. eqns.                    :        0.077 s           0.077 s
  | Total energy evaluation                    :        0.000 s           0.000 s

  Partial memory accounting:
  | Current value for overall tracked memory usage on task 0  :           2.196 MB
  | Peak value for overall tracked memory usage on task 0     :          22.583 MB after allocating zora_vector2
  | Largest tracked array allocation on task 0 so far         :           6.238 MB  when allocating hamiltonian_shell
  Note:  These values currently only include a subset of arrays which are explicitly tracked.
  The "true" memory usage will be greater.
------------------------------------------------------------

------------------------------------------------------------
          Begin self-consistency iteration #    2

  Date     :  20210620, Time     :  163949.508
------------------------------------------------------------
  Evaluating new KS density.
  Integration grid: deviation in total charge (<rho> - N_e) =   1.421085E-13
  Pulay mixing of updated and previous charge densities.

  Evaluating partitioned Hartree potential by multipole expansion.
  | Analytical far-field extrapolation by fixed multipoles:
  | Hartree multipole sum: apparent total charge =  -0.274654E-04
  Summing up the Hartree potential with load balancing.
  Time summed over all CPUs for potential: real work       13.144 s, elapsed       16.194 s
  | RMS charge density error from multipole expansion :   0.190730E-01

  Integrating Hamiltonian matrix: batch-based integration with load balancing
  Time summed over all CPUs for integration: real work       89.697 s, elapsed       93.377 s
  Time get_set_full_local_matrix_scalapack:     0.012723 s

  Updating Kohn-Sham eigenvalues and eigenvectors using ELSI and the ELPA eigensolver.
  Finished transformation to standard eigenproblem
  | Time :     0.006 s
  Starting ELPA eigensolver
  Finished solving standard eigenproblem
  | Time :     0.042 s
  Finished back-transformation of eigenvectors
  | Time :     0.002 s

  Obtaining occupation numbers and chemical potential using ELSI.
  | Chemical potential (Fermi level):    -2.95666172 eV
  Highest occupied state (VBM) at     -5.89125328 eV
  | Occupation number:      2.00000000

  Lowest unoccupied state (CBM) at    -2.68943559 eV
  | Occupation number:      0.00000000

  Overall HOMO-LUMO gap:      3.20181768 eV.

  Checking to see if s.c.f. parameters should be adjusted.

  Total energy components:
  | Sum of eigenvalues            :        -438.34673601 Ha      -11928.02157795 eV
  | XC energy correction          :        -111.54685041 Ha       -3035.34423629 eV
  | XC potential correction       :         143.29877336 Ha        3899.35802017 eV
  | Free-atom electrostatic energy:        -335.03547970 Ha       -9116.77925919 eV
  | Hartree energy correction     :         -26.38214567 Ha        -717.89470971 eV
  | Entropy correction            :           0.00000000 Ha           0.00000000 eV
  | ---------------------------
  | Total energy                  :        -768.01243843 Ha      -20898.68176296 eV
  | Total energy, T -> 0          :        -768.01243843 Ha      -20898.68176296 eV  <-- do not rely on this value for anything but (periodic) metals
  | Electronic free energy        :        -768.01243843 Ha      -20898.68176296 eV

  Derived energy quantities:
  | Kinetic energy                :         767.73006184 Ha       20890.99790487 eV
  | Electrostatic energy          :       -1424.19564986 Ha      -38754.33543154 eV
  | Energy correction for multipole
  | error in Hartree potential    :          -0.08162096 Ha          -2.22101938 eV
  | Sum of eigenvalues per atom                           :        -397.60071926 eV
  | Total energy (T->0) per atom                          :        -696.62272543 eV  <-- do not rely on this value for anything but (periodic) metals
  | Electronic free energy per atom                       :        -696.62272543 eV

  Self-consistency convergence accuracy:
  | Change of charge density      :  0.4216E+00
  | Change of sum of eigenvalues  :  0.1513E+03 eV
  | Change of total energy        :  0.2100E+01 eV

  End self-consistency iteration #     2       :  max(cpu_time)    wall_clock(cpu1)
  | Time for this iteration                    :        2.684 s           2.934 s
  | Charge density update                      :        0.631 s           0.630 s
  | Density mixing                             :        0.004 s           0.247 s
  | Hartree multipole update                   :        0.012 s           0.012 s
  | Hartree multipole summation                :        0.291 s           0.292 s
  | Integration                                :        1.670 s           1.670 s
  | Solution of K.-S. eqns.                    :        0.073 s           0.074 s
  | Total energy evaluation                    :        0.000 s           0.000 s

  Partial memory accounting:
  | Current value for overall tracked memory usage on task 0  :           2.197 MB
  | Peak value for overall tracked memory usage on task 0     :          22.763 MB after allocating zora_vector2
  | Largest tracked array allocation on task 0 so far         :           6.238 MB  when allocating hamiltonian_shell
  Note:  These values currently only include a subset of arrays which are explicitly tracked.
  The "true" memory usage will be greater.
------------------------------------------------------------

------------------------------------------------------------
          Begin self-consistency iteration #    3

  Date     :  20210620, Time     :  163952.445
------------------------------------------------------------
  Evaluating new KS density.
  Integration grid: deviation in total charge (<rho> - N_e) =   1.421085E-13
  Pulay mixing of updated and previous charge densities.

  Evaluating partitioned Hartree potential by multipole expansion.
  | Analytical far-field extrapolation by fixed multipoles:
  | Hartree multipole sum: apparent total charge =  -0.273624E-04
  Summing up the Hartree potential with load balancing.
  Time summed over all CPUs for potential: real work       11.076 s, elapsed       14.004 s
  | RMS charge density error from multipole expansion :   0.217817E-01

  Integrating Hamiltonian matrix: batch-based integration with load balancing
  Time summed over all CPUs for integration: real work       90.887 s, elapsed       94.306 s
  Time get_set_full_local_matrix_scalapack:     0.012702 s

  Updating Kohn-Sham eigenvalues and eigenvectors using ELSI and the ELPA eigensolver.
  Finished transformation to standard eigenproblem
  | Time :     0.006 s
  Starting ELPA eigensolver
  Finished solving standard eigenproblem
  | Time :     0.042 s
  Finished back-transformation of eigenvectors
  | Time :     0.002 s

  Obtaining occupation numbers and chemical potential using ELSI.
  | Chemical potential (Fermi level):    -2.60840093 eV
  Highest occupied state (VBM) at     -5.33574516 eV
  | Occupation number:      2.00000000

  Lowest unoccupied state (CBM) at    -2.44126985 eV
  | Occupation number:      0.00000000

  Overall HOMO-LUMO gap:      2.89447531 eV.

  Total energy components:
  | Sum of eigenvalues            :        -436.66162801 Ha      -11882.16745617 eV
  | XC energy correction          :        -111.59432038 Ha       -3036.63595992 eV
  | XC potential correction       :         143.35812091 Ha        3900.97294935 eV
  | Free-atom electrostatic energy:        -335.03547970 Ha       -9116.77925919 eV
  | Hartree energy correction     :         -28.07227962 Ha        -763.88559464 eV
  | Entropy correction            :           0.00000000 Ha           0.00000000 eV
  | ---------------------------
  | Total energy                  :        -768.00558680 Ha      -20898.49532058 eV
  | Total energy, T -> 0          :        -768.00558680 Ha      -20898.49532058 eV  <-- do not rely on this value for anything but (periodic) metals
  | Electronic free energy        :        -768.00558680 Ha      -20898.49532058 eV

  Derived energy quantities:
  | Kinetic energy                :         766.59418744 Ha       20860.08918988 eV
  | Electrostatic energy          :       -1423.00545386 Ha      -38721.94855053 eV
  | Energy correction for multipole
  | error in Hartree potential    :          -0.08954775 Ha          -2.43671813 eV
  | Sum of eigenvalues per atom                           :        -396.07224854 eV
  | Total energy (T->0) per atom                          :        -696.61651069 eV  <-- do not rely on this value for anything but (periodic) metals
  | Electronic free energy per atom                       :        -696.61651069 eV

  Self-consistency convergence accuracy:
  | Change of charge density      :  0.1643E+00
  | Change of sum of eigenvalues  :  0.4585E+02 eV
  | Change of total energy        :  0.1864E+00 eV

  End self-consistency iteration #     3       :  max(cpu_time)    wall_clock(cpu1)
  | Time for this iteration                    :        2.669 s           2.668 s
  | Charge density update                      :        0.635 s           0.633 s
  | Density mixing                             :        0.004 s           0.004 s
  | Hartree multipole update                   :        0.007 s           0.007 s
  | Hartree multipole summation                :        0.252 s           0.252 s
  | Integration                                :        1.687 s           1.687 s
  | Solution of K.-S. eqns.                    :        0.078 s           0.079 s
  | Total energy evaluation                    :        0.000 s           0.001 s

  Partial memory accounting:
  | Current value for overall tracked memory usage on task 0  :           2.197 MB
  | Peak value for overall tracked memory usage on task 0     :          22.763 MB after allocating zora_vector2
  | Largest tracked array allocation on task 0 so far         :           6.238 MB  when allocating hamiltonian_shell
  Note:  These values currently only include a subset of arrays which are explicitly tracked.
  The "true" memory usage will be greater.
------------------------------------------------------------

------------------------------------------------------------
          Begin self-consistency iteration #    4

[...]
  Note:  These values currently only include a subset of arrays which are explicitly tracked.
  The "true" memory usage will be greater.
------------------------------------------------------------
  |------------------------------------------------------
  | Final ELSI Output
  |------------------------------------------------------
  |
  | Physical Properties
  |   Number of electrons       :        0.13000000E+03
  |   Number of spins           :                     1
  |   Number of k-points        :                     1
  |   Number of states          :                   140
  |
  | Matrix Properties
  |   Matrix format             :           BLACS_DENSE
  |   Number of basis functions :                   930
  |   Matrix sparsity           :        0.56376460E-02
  |
  | Computational Details
  |   Parallel mode             :            MULTI_PROC
  |   Number of MPI tasks       :                    56
  |   Solver requested          :                  ELPA
  |   Number of ELSI calls      :                    16
  |
  |------------------------------------------------------
  | ELSI Project (c)  elsi-interchange.org
  |------------------------------------------------------

------------------------------------------------------------
          Post-processing: scaled ZORA corrections to eigenvalues and total energy.

  Date     :  20210620, Time     :  164027.161
------------------------------------------------------------
  Computing correction matrix for scaled ZORA eigenvalues.
  Evaluating scaled zora correction for each Kohn-Sham eigenstate.
  Evaluating scaled zora correction for each Kohn-Sham eigenstate.
  Time get_set_sparse_local_matrix_scalapack:     2.330864 s
  Writing Kohn-Sham eigenvalues.

  State    Occupation    Eigenvalue [Ha]    Eigenvalue [eV]
      1       2.00000          -9.914248         -269.78041
      2       2.00000          -9.914009         -269.77390
      3       2.00000          -9.913943         -269.77210
      4       2.00000          -9.913711         -269.76580
      5       2.00000          -9.913514         -269.76044
      6       2.00000          -9.910118         -269.66802
      7       2.00000          -9.909599         -269.65392
      8       2.00000          -9.909594         -269.65377
      9       2.00000          -9.909571         -269.65315
     10       2.00000          -9.909356         -269.64730
     11       2.00000          -9.909134         -269.64127
     12       2.00000          -9.909090         -269.64006
     13       2.00000          -9.908916         -269.63532
     14       2.00000          -9.908837         -269.63319
     15       2.00000          -9.908679         -269.62888
     16       2.00000          -9.892031         -269.17585
     17       2.00000          -9.891724         -269.16751
     18       2.00000          -9.891674         -269.16613
     19       2.00000          -9.891377         -269.15807
     20       2.00000          -9.891239         -269.15430
     21       2.00000          -0.845349          -23.00311
     22       2.00000          -0.788698          -21.46155
     23       2.00000          -0.788390          -21.45318
     24       2.00000          -0.739601          -20.12556
     25       2.00000          -0.733352          -19.95553
     26       2.00000          -0.733137          -19.94968
     27       2.00000          -0.670365          -18.24156
     28       2.00000          -0.669874          -18.22819
     29       2.00000          -0.654036          -17.79723
     30       2.00000          -0.653885          -17.79310
     31       2.00000          -0.581656          -15.82766
     32       2.00000          -0.581250          -15.81661
     33       2.00000          -0.576915          -15.69866
     34       2.00000          -0.540626          -14.71118
     35       2.00000          -0.540456          -14.70656
     36       2.00000          -0.521932          -14.20250
     37       2.00000          -0.465434          -12.66510
     38       2.00000          -0.465341          -12.66257
     39       2.00000          -0.460809          -12.53925
     40       2.00000          -0.453204          -12.33231
     41       2.00000          -0.452684          -12.31817
     42       2.00000          -0.404018          -10.99390
     43       2.00000          -0.403854          -10.98944
     44       2.00000          -0.398048          -10.83144
     45       2.00000          -0.385895          -10.50074
     46       2.00000          -0.385817          -10.49862
     47       2.00000          -0.375675          -10.22263
     48       2.00000          -0.374971          -10.20348
     49       2.00000          -0.370946          -10.09395
     50       2.00000          -0.357433           -9.72625
     51       2.00000          -0.357225           -9.72058
     52       2.00000          -0.341198           -9.28446
     53       2.00000          -0.340854           -9.27510
     54       2.00000          -0.339814           -9.24680
     55       2.00000          -0.299199           -8.14163
     56       2.00000          -0.298939           -8.13455
     57       2.00000          -0.294165           -8.00465
     58       2.00000          -0.293626           -7.98997
     59       2.00000          -0.282628           -7.69071
     60       2.00000          -0.275508           -7.49696
     61       2.00000          -0.274925           -7.48108
     62       2.00000          -0.216120           -5.88092
     63       2.00000          -0.215278           -5.85802
     64       2.00000          -0.207731           -5.65265
     65       2.00000          -0.207047           -5.63403
     66       0.00000          -0.094258           -2.56490
     67       0.00000          -0.093380           -2.54099
     68       0.00000          -0.044984           -1.22408
     69       0.00000          -0.033504           -0.91169
     70       0.00000          -0.023761           -0.64658
     71       0.00000          -0.023674           -0.64420
     72       0.00000          -0.003408           -0.09272
     73       0.00000           0.003718            0.10117
     74       0.00000           0.003879            0.10555
     75       0.00000           0.018055            0.49129
     76       0.00000           0.018201            0.49528
     77       0.00000           0.037922            1.03191
     78       0.00000           0.038050            1.03538
     79       0.00000           0.042477            1.15584
     80       0.00000           0.043103            1.17289
     81       0.00000           0.066282            1.80362
     82       0.00000           0.066619            1.81279
     83       0.00000           0.080597            2.19317
     84       0.00000           0.099459            2.70643
     85       0.00000           0.105042            2.85833
     86       0.00000           0.108234            2.94520
     87       0.00000           0.108557            2.95400
     88       0.00000           0.116644            3.17405
     89       0.00000           0.119586            3.25410
     90       0.00000           0.120018            3.26586
     91       0.00000           0.134480            3.65940
     92       0.00000           0.135266            3.68078
     93       0.00000           0.147584            4.01595
     94       0.00000           0.150025            4.08240
     95       0.00000           0.150397            4.09252
     96       0.00000           0.151302            4.11713
     97       0.00000           0.151612            4.12558
     98       0.00000           0.173695            4.72648
     99       0.00000           0.174939            4.76033
    100       0.00000           0.184395            5.01763
    101       0.00000           0.185051            5.03549
    102       0.00000           0.185519            5.04824
    103       0.00000           0.190053            5.17161
    104       0.00000           0.190860            5.19356
    105       0.00000           0.192791            5.24610
    106       0.00000           0.193759            5.27244
    107       0.00000           0.199732            5.43500
    108       0.00000           0.200226            5.44841
    109       0.00000           0.212158            5.77310
    110       0.00000           0.223298            6.07626
    111       0.00000           0.226729            6.16960
    112       0.00000           0.227120            6.18024
    113       0.00000           0.227580            6.19278
    114       0.00000           0.228046            6.20545
    115       0.00000           0.229246            6.23809
    116       0.00000           0.230373            6.26876
    117       0.00000           0.246830            6.71658
    118       0.00000           0.247095            6.72379
    119       0.00000           0.250064            6.80459
    120       0.00000           0.250774            6.82391
    121       0.00000           0.252245            6.86394
    122       0.00000           0.255241            6.94547
    123       0.00000           0.256050            6.96747
    124       0.00000           0.271228            7.38049
    125       0.00000           0.297535            8.09633
    126       0.00000           0.297905            8.10640
    127       0.00000           0.300383            8.17384
    128       0.00000           0.300651            8.18114
    129       0.00000           0.312394            8.50067
    130       0.00000           0.313352            8.52673
    131       0.00000           0.328090            8.92779
    132       0.00000           0.329955            8.97854
    133       0.00000           0.331211            9.01270
    134       0.00000           0.332836            9.05694
    135       0.00000           0.333025            9.06206
    136       0.00000           0.333840            9.08426
    137       0.00000           0.362374            9.86069
    138       0.00000           0.367042            9.98772
    139       0.00000           0.367646           10.00417
    140       0.00000           0.382239           10.40125

  Highest occupied state (VBM) at     -5.63402613 eV
  | Occupation number:      2.00000000

  Lowest unoccupied state (CBM) at    -2.56489730 eV
  | Occupation number:      0.00000000

  Overall HOMO-LUMO gap:      3.06912883 eV.

  Total energy components:
  | Sum of eigenvalues            :        -437.47654421 Ha      -11904.34245436 eV
  | XC energy correction          :        -111.53834821 Ha       -3035.11287975 eV
  | XC potential correction       :         143.28415407 Ha        3898.96020915 eV
  | Free-atom electrostatic energy:        -335.03547970 Ha       -9116.77925919 eV
  | Hartree energy correction     :         -27.06115219 Ha        -736.37141723 eV
  | Entropy correction            :           0.00000000 Ha           0.00000000 eV
  | ---------------------------
  | Total energy                  :        -767.82737025 Ha      -20893.64580138 eV
  | Total energy, T -> 0          :        -767.82737025 Ha      -20893.64580138 eV  <-- do not rely on this value for anything but (periodic) metals
  | Electronic free energy        :        -767.82737025 Ha      -20893.64580138 eV

  Derived energy quantities:
  | Kinetic energy                :         765.64999049 Ha       20834.39628366 eV
  | Electrostatic energy          :       -1421.93901252 Ha      -38692.92920529 eV
  | Energy correction for multipole
  | error in Hartree potential    :          -0.09323770 Ha          -2.53712688 eV
  | Sum of eigenvalues per atom                           :        -396.81141515 eV
  | Total energy (T->0) per atom                          :        -696.45486005 eV  <-- do not rely on this value for anything but (periodic) metals
  | Electronic free energy per atom                       :        -696.45486005 eV
  End evaluation of scaled ZORA corrections.
  | Time for scaled ZORA corrections           :        3.130 s           3.154 s
------------------------------------------------------------

  Energy and forces in a compact form:
  | Total energy uncorrected      :         -0.208936458013794E+05 eV
  | Total energy corrected        :         -0.208936458013794E+05 eV  <-- do not rely on this value for anything but (periodic) metals
  | Electronic free energy        :         -0.208936458013794E+05 eV

  ------------------------------------ 
  Start decomposition of the XC Energy 
  ------------------------------------ 
  X and C from original XC functional choice 
  Hartree-Fock Energy :          0.000000000 Ha              0.000000000 eV
  X Energy            :       -107.157813775 Ha          -2915.912472809 eV
  C Energy            :         -4.380534439 Ha           -119.200406944 eV
  Total XC Energy     :       -111.538348214 Ha          -3035.112879753 eV
  ------------------------------------ 
  LDA X and C from self-consistent density 
  X Energy LDA        :        -97.064474438 Ha          -2641.258735233 eV
  C Energy LDA        :         -8.425475740 Ha           -229.268859962 eV
  ------------------------------------ 
  End decomposition of the XC Energy 
  ------------------------------------ 

------------------------------------------------------------

------------------------------------------------------------------------------
  Final output of selected total energy values:

  The following output summarizes some interesting total energy values
  at the end of a run (AFTER all relaxation, molecular dynamics, etc.).

  | Total energy of the DFT / Hartree-Fock s.c.f. calculation      :         -20893.645801379 eV
  | Final zero-broadening corrected energy (caution - metals only) :         -20893.645801379 eV
  | For reference only, the value of 1 Hartree used in FHI-aims is :             27.211384500 eV

  Before relying on these values, please be sure to understand exactly which
  total energy value is referred to by a given number. Different objects may
  all carry the same name 'total energy'. Definitions:

  Total energy of the DFT / Hartree-Fock s.c.f. calculation:
  | Note that this energy does not include ANY quantities calculated after the
  | s.c.f. cycle, in particular not ANY RPA, MP2, etc. many-body perturbation terms.
  | Scalar relativistic effects have been included in the 'scaled ZORA' approximation.

  Final zero-broadening corrected energy:
  | For metallic systems only, a broadening of the occupation numbers at the Fermi
  | level can be extrapolated back to zero broadening by an electron-gas inspired
  | formula. For all systems that are not real metals, this value can be
  | meaningless and should be avoided.

------------------------------------------------------------------------------
  Methods described in the following list of references were used in this FHI-aims run.
  If you publish the results, please make sure to cite these reference if they apply.
  FHI-aims is an academic code, and for our developers (often, Ph.D. students
  and postdocs), scientific credit in the community is essential.
  Thank you for helping us!

  For any use of FHI-aims, please cite:

    Volker Blum, Ralf Gehrke, Felix Hanke, Paula Havu, Ville Havu,
    Xinguo Ren, Karsten Reuter, and Matthias Scheffler
    'Ab initio molecular simulations with numeric atom-centered orbitals'
    Computer Physics Communications 180, 2175-2196 (2009)
    http://dx.doi.org/10.1016/j.cpc.2009.06.022


  The scalable eigensolver library ELPA was used in your run.
  ELPA is essential especially for large systems on hundreds or thousands of CPUs.
  For ELPA, please cite:

    Andreas Marek, Volker Blum, Rainer Johanni, Ville Havu, Bruno Lang,
    Thomas Auckenthaler, Alexander Heinecke, Hans-Joachim Bungartz, and Hermann Lederer,
    'The ELPA Library - Scalable Parallel Eigenvalue Solutions
    for Electronic Structure Theory and Computational Science'
    The Journal of Physics: Condensed Matter 26, 213201 (2014).
    http://dx.doi.org/10.1088/0953-8984/26/21/213201


  The ELSI infrastructure was used in your run to solve the Kohn-Sham electronic structure.
  Please check out http://elsi-interchange.org to learn more.
  If scalability is important for your project, please acknowledge ELSI by citing:

    V. W-z. Yu, F. Corsetti, A. Garcia, W. P. Huhn, M. Jacquelin, W. Jia,
    B. Lange, L. Lin, J. Lu, W. Mi, A. Seifitokaldani, A. Vazquez-Mayagoitia,
    C. Yang, H. Yang, and V. Blum
    'ELSI: A unified software interface for Kohn-Sham electronic structure solvers'
    Computer Physics Communications 222, 267-285 (2018).
    http://dx.doi.org/10.1016/j.cpc.2017.09.007


  For the real-space grid partitioning and parallelization used in this calculation, please cite:

    Ville Havu, Volker Blum, Paula Havu, and Matthias Scheffler,
    'Efficient O(N) integration for all-electron electronic structure calculation'
    'using numerically tabulated basis functions'
    Journal of Computational Physics 228, 8367-8379 (2009).
    http://dx.doi.org/10.1016/j.jcp.2009.08.008

  Of course, there are many other important community references, e.g., those cited in the
  above references. Our list is limited to references that describe implementations in the
  FHI-aims code. The reason is purely practical (length of this list) - please credit others as well.

------------------------------------------------------------
          Leaving FHI-aims.
          Date     :  20210620, Time     :  164030.536

          Computational steps:
          | Number of self-consistency cycles          :           15
          | Number of SCF (re)initializations          :            1

          Detailed time accounting                     :  max(cpu_time)    wall_clock(cpu1)
          | Total time                                 :       48.366 s          50.362 s
          | Preparation time                           :        0.221 s           0.248 s
          | Boundary condition initalization           :        0.001 s           0.031 s
          | Grid partitioning                          :        0.595 s           0.609 s
          | Preloading free-atom quantities on grid    :        0.025 s           0.054 s
          | Free-atom superposition energy             :        0.050 s           0.051 s
          | Total time for integrations                :       28.690 s          29.228 s
          | Total time for solution of K.-S. equations :        1.267 s           1.486 s
          | Total time for density update              :        9.618 s           9.587 s
          | Total time for mixing                      :        0.072 s           0.359 s
          | Total time for Hartree multipole update    :        0.108 s           0.117 s
          | Total time for Hartree multipole sum       :        3.895 s           3.923 s
          | Total time for total energy evaluation     :        0.004 s           0.033 s
          | Total time for scaled ZORA corrections     :        3.130 s           3.154 s

          Partial memory accounting:
          | Residual value for overall tracked memory usage across tasks :     0.000000 MB (should be 0.000000 MB)
          | Peak values for overall tracked memory usage (after allocating zora_vector2):
          |   Minimum:       22.275 MB (on task  8)
          |   Maximum:       25.439 MB (on task 26)
          |   Average:       23.962 MB
          | Largest tracked array allocation (hamiltonian_shell):
          |   Minimum:        6.238 MB (on task  1)
          |   Maximum:        6.238 MB (on task  1)
          |   Average:        6.238 MB
          Note:  These values currently only include a subset of arrays which are explicitly tracked.
          The "true" memory usage will be greater.

          Have a nice day.
------------------------------------------------------------
