  MPI-parallelism will be employed.
------------------------------------------------------------
          Invoking FHI-aims ...
          Version 180607
          Git rev. (modified): 6724847 Fix JSON memory corruption in scf_solver
          Compiled on 2018/06/27 at 16:00:31 on host coe.psc.edu.

          When using FHI-aims, please cite the following reference:

          Volker Blum, Ralf Gehrke, Felix Hanke, Paula Havu,
          Ville Havu, Xinguo Ren, Karsten Reuter, and Matthias Scheffler,
          'Ab Initio Molecular Simulations with Numeric Atom-Centered Orbitals',
          Computer Physics Communications 180, 2175-2196 (2009)

          For any questions about FHI-aims, please visit the aimsclub website
          with its forums and wiki. Contributions to both the forums and the
          wiki are warmly encouraged - they are for you, and everyone is welcome there.

------------------------------------------------------------



  Date     :  20210620, Time     :  162153.863
  Time zero on CPU 1             :   0.140095000000000E+00  s.
  Internal wall clock time zero  :           393438113.863  s.

  FHI-aims created a unique identifier for this run for later identification
  aims_uuid : 25D78B49-0D6A-47AA-A87F-0182EA104D70

  Using       56 parallel tasks.
  Task        0 on host d021 reporting.
  Task        1 on host d021 reporting.
  Task        2 on host d021 reporting.
  Task        3 on host d021 reporting.
  Task        4 on host d021 reporting.
  Task        5 on host d021 reporting.
  Task        6 on host d021 reporting.
  Task        7 on host d021 reporting.
  Task        8 on host d021 reporting.
  Task        9 on host d021 reporting.
  Task       10 on host d021 reporting.
  Task       11 on host d021 reporting.
  Task       12 on host d021 reporting.
  Task       13 on host d021 reporting.
  Task       14 on host d021 reporting.
  Task       15 on host d021 reporting.
  Task       16 on host d021 reporting.
  Task       17 on host d021 reporting.
  Task       18 on host d021 reporting.
  Task       19 on host d021 reporting.
  Task       20 on host d021 reporting.
  Task       21 on host d021 reporting.
  Task       22 on host d021 reporting.
  Task       23 on host d021 reporting.
  Task       24 on host d021 reporting.
  Task       25 on host d021 reporting.
  Task       26 on host d021 reporting.
  Task       27 on host d021 reporting.
  Task       28 on host d021 reporting.
  Task       29 on host d021 reporting.
  Task       30 on host d021 reporting.
  Task       31 on host d021 reporting.
  Task       32 on host d021 reporting.
  Task       33 on host d021 reporting.
  Task       34 on host d021 reporting.
  Task       35 on host d021 reporting.
  Task       36 on host d021 reporting.
  Task       37 on host d021 reporting.
  Task       38 on host d021 reporting.
  Task       39 on host d021 reporting.
  Task       40 on host d021 reporting.
  Task       41 on host d021 reporting.
  Task       42 on host d021 reporting.
  Task       43 on host d021 reporting.
  Task       44 on host d021 reporting.
  Task       45 on host d021 reporting.
  Task       46 on host d021 reporting.
  Task       47 on host d021 reporting.
  Task       48 on host d021 reporting.
  Task       49 on host d021 reporting.
  Task       50 on host d021 reporting.
  Task       51 on host d021 reporting.
  Task       52 on host d021 reporting.
  Task       53 on host d021 reporting.
  Task       54 on host d021 reporting.
  Task       55 on host d021 reporting.

  Performing system and environment tests:
  *** Environment variable OMP_NUM_THREADS is not set
  *** For performance reasons you might want to set it to 1
  | Stacksize not measured: no C compiler
  | Checking for scalapack...
  | Testing pdtran()...
  | All pdtran() tests passed.

  Obtaining array dimensions for all initial allocations:
  
  -----------------------------------------------------------------------
  Parsing control.in (first pass over file, find array dimensions only).
  The contents of control.in will be repeated verbatim below
  unless switched off by setting 'verbatim_writeout .false.' .
  in the first line of control.in .
  -----------------------------------------------------------------------
  
  #===============================================================================
  # FHI-aims file: ./Runs/es/control.in
  # Created using the Atomic Simulation Environment (ASE)
  # Mon Jan 13 16:04:38 2020
  #===============================================================================
  xc                                 pbe
  relativistic                       zora scalar 1e-12
  occupation_type                    gaussian 0.0001
  load_balancing                     .true.
  KS_method                          scalapack_fast
  mixer                              pulay
  n_max_pulay                        5
  charge_mix_param                   0.4
  sc_accuracy_etot                   1e-6
  sc_accuracy_eev                    1e-4
  sc_accuracy_rho                    1e-6
  sc_iter_limit                      100
  prodbas_threshold                  1e-4
  basis_threshold                    1e-5
  override_illconditioning           .true.
  use_logsbt                         .true.
  spin                               none
  charge                             0
  #===============================================================================
  
  ################################################################################
  #
  #  FHI-aims code project
  # Volker Blum, Fritz Haber Institute Berlin, 2009
  #
  #  Suggested "tight" defaults for H atom (to be pasted into control.in file)
  #
  ################################################################################
    species        H
  #     global species definitions
      nucleus             1
      mass                1.00794
  #
      l_hartree           6
  #
      cut_pot             4.0  2.0  1.0
      basis_dep_cutoff    1e-4
  #
      radial_base         24 7.0
      radial_multiplier   2
      angular_grids       specified
        division   0.1930   50
        division   0.3175  110
        division   0.4293  194
        division   0.5066  302
        division   0.5626  434
  #      division   0.5922  590
  #      division   0.6227  974
  #      division   0.6868 1202
  #      outer_grid  770
        outer_grid  434
  ################################################################################
  #
  #  Definition of "minimal" basis
  #
  ################################################################################
  #     valence basis states
      valence      1  s   1.
  #     ion occupancy
      ion_occ      1  s   0.5
  ################################################################################
  #
  #  Suggested additional basis functions. For production calculations,
  #  uncomment them one after another (the most important basis functions are
  #  listed first).
  #
  #  Basis constructed for dimers: 0.5 A, 0.7 A, 1.0 A, 1.5 A, 2.5 A
  #
  ################################################################################
  #  "First tier" - improvements: -1014.90 meV to -62.69 meV
       hydro 2 s 2.1
       hydro 2 p 3.5
  #  "Second tier" - improvements: -12.89 meV to -1.83 meV
       hydro 1 s 0.85
       hydro 2 p 3.7
       hydro 2 s 1.2
       hydro 3 d 7
  #  "Third tier" - improvements: -0.25 meV to -0.12 meV
  #     hydro 4 f 11.2
  #     hydro 3 p 4.8
  #     hydro 4 d 9
  #     hydro 3 s 3.2
  ################################################################################
  #
  # For methods that use the localized form of the "resolution of identity" for
  # the two-electron Coulomb operator (RI_method LVL), particularly Hartree-Fock and
  # hybrid density functional calculations, the highest accuracy can be obtained by
  # uncommenting the line beginning with "for_aux"  below, thus adding an extra g radial
  # function to the construction of the product basis set for the expansion.
  # See Ref. New J. Phys. 17, 093020 (2015) for more information, particularly Figs. 1 and 6.
  #
  ################################################################################
  #
  # for_aux hydro 5 g 6.0
  ################################################################################
  #
  #  FHI-aims code project
  # Volker Blum, Fritz Haber Institute Berlin, 2009
  #
  #  Suggested "tight" defaults for C atom (to be pasted into control.in file)
  #
  ################################################################################
    species        C
  #     global species definitions
      nucleus             6
      mass                12.0107
  #
      l_hartree           6
  #
      cut_pot             4.0  2.0  1.0
      basis_dep_cutoff    1e-4
  #
      radial_base         34 7.0
      radial_multiplier   2
      angular_grids specified
        division   0.2187   50
        division   0.4416  110
        division   0.6335  194
        division   0.7727  302
        division   0.8772  434
  #      division   0.9334  590
  #      division   0.9924  770
  #      division   1.0230  974
  #      division   1.5020 1202
  #     outer_grid  974
        outer_grid  434
  ################################################################################
  #
  #  Definition of "minimal" basis
  #
  ################################################################################
  #     valence basis states
      valence      2  s   2.
      valence      2  p   2.
  #     ion occupancy
      ion_occ      2  s   1.
      ion_occ      2  p   1.
  ################################################################################
  #
  #  Suggested additional basis functions. For production calculations,
  #  uncomment them one after another (the most important basis functions are
  #  listed first).
  #
  #  Constructed for dimers: 1.0 A, 1.25 A, 1.5 A, 2.0 A, 3.0 A
  #
  ################################################################################
  #  "First tier" - improvements: -1214.57 meV to -155.61 meV
       hydro 2 p 1.7
       hydro 3 d 6
       hydro 2 s 4.9
  #  "Second tier" - improvements: -67.75 meV to -5.23 meV
       hydro 4 f 9.8
       hydro 3 p 5.2
       hydro 3 s 4.3
       hydro 5 g 14.4
       hydro 3 d 6.2
  #  "Third tier" - improvements: -2.43 meV to -0.60 meV
  #     hydro 2 p 5.6
  #     hydro 2 s 1.4
  #     hydro 3 d 4.9
  #     hydro 4 f 11.2
  #  "Fourth tier" - improvements: -0.39 meV to -0.18 meV
  #     hydro 2 p 2.1
  #     hydro 5 g 16.4
  #     hydro 4 d 13.2
  #     hydro 3 s 13.6
  #     hydro 4 f 17.6
  #  Further basis functions - improvements: -0.08 meV and below
  #     hydro 3 s 2
  #     hydro 3 p 6
  #     hydro 4 d 20
  ################################################################################
  #
  # For methods that use the localized form of the "resolution of identity" for
  # the two-electron Coulomb operator (RI_method LVL), particularly Hartree-Fock and
  # hybrid density functional calculations, the highest accuracy can be obtained by
  # uncommenting the line beginning with "for_aux"  below, thus adding an extra g radial
  # function to the construction of the product basis set for the expansion.
  # See Ref. New J. Phys. 17, 093020 (2015) for more information, particularly Figs. 1 and 6.
  #
  ################################################################################
  #
  # for_aux hydro 5 g 6.0
  
  -----------------------------------------------------------------------
  Completed first pass over input file control.in .
  -----------------------------------------------------------------------
  
  
  -----------------------------------------------------------------------
  Parsing geometry.in (first pass over file, find array dimensions only).
  The contents of geometry.in will be repeated verbatim below
  unless switched off by setting 'verbatim_writeout .false.' .
  in the first line of geometry.in .
  -----------------------------------------------------------------------
  
  #=======================================================
  # FHI-aims file: geometry.in
  # Created using the Atomic Simulation Environment (ASE)
  # Sun Jun 20 15:47:01 2021
  #=======================================================
  atom 3.1409460000000000 23.3127840000000006 58.3192009999999996 C
  atom 2.1083280000000002 24.3737649999999988 58.5373149999999995 C
  atom 3.2139319999999998 22.5899339999999995 57.1271279999999990 C
  atom 4.0913750000000002 23.0660319999999999 59.3477999999999994 C
  atom 1.0744640000000001 24.1841520000000010 59.4290930000000017 C
  atom 2.1831649999999998 25.5948959999999985 57.9022969999999972 C
  atom 2.3430599999999999 22.8527829999999987 56.0258979999999980 C
  atom 4.1955650000000002 21.5408529999999985 56.9736479999999972 C
  atom 5.1021690000000000 22.0567309999999992 59.1729979999999998 C
  atom 4.1158099999999997 23.8249889999999986 60.5209940000000017 C
  atom 0.9751150000000000 23.2231969999999990 59.9319539999999975 H
  atom 0.1734150000000000 25.1921959999999991 59.7007359999999991 C
  atom 1.2709360000000001 26.5938489999999987 58.1652780000000007 C
  atom 2.9757069999999999 25.7667590000000004 57.1764360000000025 H
  atom 1.6256539999999999 23.6640879999999996 56.1267360000000011 H
  atom 2.4237720000000000 22.1545489999999994 54.8738039999999998 C
  atom 4.1950589999999996 20.8073890000000006 55.7518120000000010 C
  atom 5.1239059999999998 21.2902360000000002 57.9878100000000032 C
  atom 6.0370320000000000 21.8608779999999996 60.2015979999999971 C
  atom 3.3647800000000001 24.5992110000000004 60.6376029999999986 H
  atom 5.0797080000000001 23.6703870000000016 61.5140559999999965 C
  atom -0.6196100000000000 25.0096810000000005 60.4243760000000023 H
  atom 0.2780040000000000 26.3962530000000015 59.0797110000000032 C
  atom 1.3563630000000000 27.5429080000000006 57.6337639999999993 H
  atom 1.7733950000000001 22.3946819999999995 54.0337779999999981 H
  atom 3.3543729999999998 21.1064299999999996 54.7416479999999979 C
  atom 4.9072610000000001 19.9892919999999989 55.6467529999999968 H
  atom 6.1612669999999996 20.2236240000000009 57.8065670000000011 C
  atom 6.7867689999999996 21.0867989999999992 60.0649990000000003 H
  atom 6.0472619999999999 22.6123510000000003 61.3725700000000032 C
  atom 5.2052399999999999 24.6001790000000007 62.5970719999999972 C
  atom -0.4286550000000000 27.1973519999999986 59.3058210000000017 H
  atom 3.3902709999999998 20.5497249999999987 53.8061140000000009 H
  atom 5.8915499999999996 18.9142539999999997 58.1050850000000025 C
  atom 7.4046849999999997 20.5300410000000007 57.3345800000000025 C
  atom 6.9658460000000000 22.3694799999999994 62.4589190000000016 C
  atom 4.1903090000000001 25.6963870000000014 62.6237259999999978 C
  atom 6.1934069999999997 24.4270159999999983 63.5494869999999992 C
  atom 4.9079449999999998 18.6439489999999992 58.4935589999999976 H
  atom 6.8450100000000003 17.9334020000000010 57.9100710000000021 C
  atom 8.3594639999999991 19.5497879999999995 57.1313480000000027 C
  atom 7.6536109999999997 21.5660010000000000 57.1069150000000008 H
  atom 6.9492320000000003 23.1793259999999997 63.5796940000000035 C
  atom 7.9884829999999996 21.2991120000000009 62.2257010000000008 C
  atom 4.1456670000000004 26.6696390000000001 61.6335520000000017 C
  atom 3.2011340000000001 25.6980100000000000 63.5848030000000008 C
  atom 6.5742310000000002 25.4804110000000001 64.5174499999999966 C
  atom 6.5968530000000003 16.8993949999999984 58.1559489999999997 H
  atom 8.0719159999999999 18.2529429999999984 57.4063220000000030 C
  atom 9.3346330000000002 19.8332149999999992 56.7366549999999989 H
  atom 7.6398700000000002 22.8180820000000004 64.8428439999999995 C
  atom 7.6525550000000004 19.9671759999999985 62.0386829999999989 C
  atom 9.3141230000000004 21.6682580000000016 62.0775530000000018 C
  atom 3.1355200000000001 27.6216270000000002 61.6337740000000025 C
  atom 4.9056559999999996 26.6832369999999983 60.8506080000000011 H
  atom 2.2049189999999999 26.6384509999999999 63.5725869999999986 C
  atom 3.2074490000000000 24.9324329999999996 64.3597510000000028 H
  atom 6.2764389999999999 26.8257669999999990 64.3173270000000059 C
  atom 7.3617119999999998 25.1428340000000006 65.6444450000000046 C
  atom 8.8133230000000005 17.4734510000000007 57.2255230000000026 H
  atom 8.0153879999999997 21.5128860000000017 65.1440269999999941 C
  atom 7.8379289999999999 23.8046329999999990 65.8347940000000023 C
  atom 6.6213540000000002 19.6392810000000004 62.1768369999999990 H
  atom 8.6261569999999992 19.0455879999999986 61.6746419999999986 C
  atom 10.2780699999999996 20.7497359999999986 61.7163990000000027 C
  atom 9.5954440000000005 22.7099110000000017 62.2370289999999997 H
  atom 2.1697829999999998 27.5925179999999983 62.6044020000000003 C
  atom 3.1169190000000002 28.3796740000000014 60.8497199999999978 H
  atom 1.4355650000000000 26.6106119999999997 64.3410930000000008 H
  atom 5.7560300000000000 27.1430709999999991 63.4224389999999971 H
  atom 6.6522360000000003 27.8033700000000010 65.2310949999999963 C
  atom 7.6855520000000004 26.1415749999999996 66.6039669999999973 C
  atom 7.7854210000000004 20.7082170000000012 64.4550370000000044 H
  atom 8.6534279999999999 21.1924039999999998 66.3363229999999930 C
  atom 8.5189649999999997 23.4701300000000010 67.0366410000000030 C
  atom 8.3449869999999997 18.0048369999999984 61.5162770000000023 H
  atom 9.9259970000000006 19.4497190000000018 61.4945099999999982 C
  atom 11.3102660000000004 21.0723489999999991 61.5877970000000019 H
  atom 1.3665280000000000 28.3289089999999995 62.6059569999999965 H
  atom 6.3993279999999997 28.8436759999999985 65.0247530000000040 H
  atom 7.3089370000000002 27.4616760000000006 66.3696390000000065 C
  atom 8.4030349999999991 25.7553049999999999 67.7847129999999964 C
  atom 8.9293580000000006 20.1560610000000011 66.5302259999999990 H
  atom 8.9231060000000006 22.1626000000000012 67.2483129999999960 C
  atom 8.7846949999999993 24.4962699999999991 67.9903879999999958 C
  atom 10.6746940000000006 18.7313079999999985 61.1602320000000006 H
  atom 7.5671520000000001 28.2191849999999995 67.1108260000000030 H
  atom 8.6313160000000000 26.5332420000000013 68.5123509999999953 H
  atom 9.4563079999999999 21.9335389999999997 68.1718539999999962 H
  atom 9.3281569999999991 24.2200379999999988 68.8957159999999931 H
  
  -----------------------------------------------------------------------
  Completed first pass over input file geometry.in .
  -----------------------------------------------------------------------
  

  Basic array size parameters:
  | Number of species                 :        2
  | Number of atoms                   :       90
  | Max. basis fn. angular momentum   :        4
  | Max. atomic/ionic basis occupied n:        2
  | Max. number of basis fn. types    :        2
  | Max. radial fns per species/type  :        8
  | Max. logarithmic grid size        :     1277
  | Max. radial integration grid size :       69
  | Max. angular integration grid size:      434
  | Max. angular grid division number :        8
  | Radial grid for Hartree potential :     1277
  | Number of spin channels           :        1

------------------------------------------------------------
          Reading file control.in.
------------------------------------------------------------
  XC: Using PBE gradient-corrected functionals.
  Scalar relativistic treatment of kinetic energy: ZORA.
  Threshold value for ZORA:   0.100000E-11
  Occupation type: Gaussian broadening, width =   0.100000E-03 eV.
  Since 'load_balancing .true.' is present in control.in, automatically turning on 'use_local_index .true.'.
  Using load balancing for integrations.
  Kohn-Sham electronic structure solved by the ELSI library.
  Using pulay charge density mixing.
  Pulay mixing - number of memorized iterations:    5
  Charge density mixing - mixing parameter:     0.4000
  Convergence accuracy of total energy:  0.1000E-05
  Convergence accuracy of sum of eigenvalues:  0.1000E-03
  Convergence accuracy of self-consistent charge density:  0.1000E-05
  Maximum number of s.-c. iterations  :   100
  * Ignoring prodbas_threshold
  Threshold for basis singularities:  0.1000E-04
  override_illconditioning: Explicitly overriding any built-in checks for an ill-conditioned overlap matrix.
  *** WARNING: If you use this flag, you should really know what you are doing.
  *** DO NOT keep this flag set by default in all your control.in files.
  Using 1D integrations for auxiliary 2-center integrals.
  Spin treatment: No spin polarisation.
  Charge =   0.000000E+00: Neutral system requested explicitly.
 
  Reading configuration options for species H                   .
  | Found nuclear charge :   1.0000
  | Found atomic mass :    1.00794000000000      amu
  | Found l_max for Hartree potential  :   6
  | Found cutoff potl. onset [A], width [A], scale factor :    4.00000    2.00000    1.00000
  | Threshold for basis-dependent cutoff potential is   0.100000E-03
  | Found data for basic radial integration grid :    24 points, outermost radius =    7.000 A
  | Found multiplier for basic radial grid :   2
  | Found angular grid specification: user-specified.
  | Specified grid contains     6 separate shells.
  | Check grid settings after all constraints further below.
  | Found free-atom valence shell :  1 s   1.000
  | No ionic wave fns used. Skipping ion_occ.
  | Found hydrogenic basis function :  2 s   2.100
  | Found hydrogenic basis function :  2 p   3.500
  | Found hydrogenic basis function :  1 s   0.850
  | Found hydrogenic basis function :  2 p   3.700
  | Found hydrogenic basis function :  2 s   1.200
  | Found hydrogenic basis function :  3 d   7.000
  Species H                   : Missing cutoff potential type.
  Defaulting to exp(1/x)/(1-x)^2 type cutoff potential.
  Species H : No 'logarithmic' tag. Using default grid for free atom:
  | Default logarithmic grid data [bohr] : 0.1000E-03 0.1000E+03 0.1012E+01
  Species H : On-site basis accuracy parameter (for Gram-Schmidt orthonormalisation) not specified.
  Using default value basis_acc =  0.1000000E-03.
  Species H                   : Using default innermost maximum threshold i_radial=  2 for radial functions.
  Species H                   : Default cutoff onset for free atom density etc. : 0.40000000E+01 AA.
  Species H                   : Basic radial grid will be enhanced according to radial_multiplier =   2, to contain    49 grid points.
 
  Reading configuration options for species C                   .
  | Found nuclear charge :   6.0000
  | Found atomic mass :    12.0107000000000      amu
  | Found l_max for Hartree potential  :   6
  | Found cutoff potl. onset [A], width [A], scale factor :    4.00000    2.00000    1.00000
  | Threshold for basis-dependent cutoff potential is   0.100000E-03
  | Found data for basic radial integration grid :    34 points, outermost radius =    7.000 A
  | Found multiplier for basic radial grid :   2
  | Found angular grid specification: user-specified.
  | Specified grid contains     6 separate shells.
  | Check grid settings after all constraints further below.
  | Found free-atom valence shell :  2 s   2.000
  | Found free-atom valence shell :  2 p   2.000
  | No ionic wave fns used. Skipping ion_occ.
  | No ionic wave fns used. Skipping ion_occ.
  | Found hydrogenic basis function :  2 p   1.700
  | Found hydrogenic basis function :  3 d   6.000
  | Found hydrogenic basis function :  2 s   4.900
  | Found hydrogenic basis function :  4 f   9.800
  | Found hydrogenic basis function :  3 p   5.200
  | Found hydrogenic basis function :  3 s   4.300
  | Found hydrogenic basis function :  5 g  14.400
  | Found hydrogenic basis function :  3 d   6.200
  Species C                   : Missing cutoff potential type.
  Defaulting to exp(1/x)/(1-x)^2 type cutoff potential.
  Species C : No 'logarithmic' tag. Using default grid for free atom:
  | Default logarithmic grid data [bohr] : 0.1000E-03 0.1000E+03 0.1012E+01
  Species C : On-site basis accuracy parameter (for Gram-Schmidt orthonormalisation) not specified.
  Using default value basis_acc =  0.1000000E-03.
  Species C                   : Using default innermost maximum threshold i_radial=  2 for radial functions.
  Species C                   : Default cutoff onset for free atom density etc. : 0.40000000E+01 AA.
  Species C                   : Basic radial grid will be enhanced according to radial_multiplier =   2, to contain    69 grid points.
 
  Finished reading input file 'control.in'. Consistency checks are next.
 
  MPI_IN_PLACE appears to work with this MPI implementation.
  | Keeping use_mpi_in_place .true. (see manual).
  Target number of points in a grid batch is not set. Defaulting to  100
  Method for grid partitioning is not set. Defaulting to parallel hash+maxmin partitioning.
  Batch size limit is not set. Defaulting to    200
  By default, will store active basis functions for each batch.
  If in need of memory, prune_basis_once .false. can be used to disable this option.
  communication_type for Hartree potential was not specified.
  Defaulting to calc_hartree .
  Pulay mixer: Number of initial linear mixing iterations not set.
  Defaulting to    0 iterations.
  Work space size for distributed Hartree potential not set.
  Defaulting to   0.200000E+03 MB.
  Algorithm-dependent basis array size parameters:
  | n_max_pulay                         :        5
  Presetting      1001 iterations before the initial mixing cycle
  is restarted anyway using the sc_init_iter criterion / keyword.
  Presetting a factor      1.000 between actual scf density residual
  and density convergence criterion sc_accuracy_rho below which sc_init_iter
  takes no effect.
  Calculation of forces was not defined in control.in. No forces will be calculated.
  Geometry relaxation not requested: no relaxation will be performed.
  No accuracy limit for integral partition fn. given. Defaulting to  0.1000E-14.
  No threshold value for u(r) in integrations given. Defaulting to  0.1000E-05.
  No accuracy for occupation numbers given. Defaulting to  0.1000E-12.
  No threshold value for occupation numbers given. Defaulting to  0.0000E+00.
  No accuracy for fermi level given. Defaulting to  0.1000E-19.
  Maximum # of iterations to find E_F not set. Defaulting to  200.
  Will not use alltoall communication since running on < 1024 CPUs.
  partition_type (choice of integration weights) for integrals was not specified.
  | Using a version of the partition function of Stratmann and coworkers ('stratmann_sparse').
  | At each grid point, the set of atoms used to build the partition table is smoothly restricted to
  | only those atoms whose free-atom density would be non-zero at that grid point.
  Partitioning for Hartree potential was not defined. Using partition_type for integrals.
  | Adjusted default value of keyword multip_moments_threshold to:       0.10000000E-11
  | This value may affect high angular momentum components of the Hartree potential in periodic systems.
  No q(lm)/r^(l+1) cutoff set for long-range Hartree potential.
  | Using default value of  0.100000E-09 .
  | Verify using the multipole_threshold keyword.
  Defaulting to new monopole extrapolation.
  Density update method: automatic selection selected.
 * Warning: use_local_index and/or load_balancing needs packed_matrix_format = index
 * Changing the default setting to packed_matrix_format = index
------------------------------------------------------------


------------------------------------------------------------
          Reading geometry description geometry.in.
------------------------------------------------------------
  Input structure read successfully.
  The structure contains       90 atoms,  and a total of        370.000 electrons.

  Input geometry:
  | No unit cell requested.
  | Atomic structure:
  |       Atom                x [A]            y [A]            z [A]
  |    1: Species C             3.14094600       23.31278400       58.31920100
  |    2: Species C             2.10832800       24.37376500       58.53731500
  |    3: Species C             3.21393200       22.58993400       57.12712800
  |    4: Species C             4.09137500       23.06603200       59.34780000
  |    5: Species C             1.07446400       24.18415200       59.42909300
  |    6: Species C             2.18316500       25.59489600       57.90229700
  |    7: Species C             2.34306000       22.85278300       56.02589800
  |    8: Species C             4.19556500       21.54085300       56.97364800
  |    9: Species C             5.10216900       22.05673100       59.17299800
  |   10: Species C             4.11581000       23.82498900       60.52099400
  |   11: Species H             0.97511500       23.22319700       59.93195400
  |   12: Species C             0.17341500       25.19219600       59.70073600
  |   13: Species C             1.27093600       26.59384900       58.16527800
  |   14: Species H             2.97570700       25.76675900       57.17643600
  |   15: Species H             1.62565400       23.66408800       56.12673600
  |   16: Species C             2.42377200       22.15454900       54.87380400
  |   17: Species C             4.19505900       20.80738900       55.75181200
  |   18: Species C             5.12390600       21.29023600       57.98781000
  |   19: Species C             6.03703200       21.86087800       60.20159800
  |   20: Species H             3.36478000       24.59921100       60.63760300
  |   21: Species C             5.07970800       23.67038700       61.51405600
  |   22: Species H            -0.61961000       25.00968100       60.42437600
  |   23: Species C             0.27800400       26.39625300       59.07971100
  |   24: Species H             1.35636300       27.54290800       57.63376400
  |   25: Species H             1.77339500       22.39468200       54.03377800
  |   26: Species C             3.35437300       21.10643000       54.74164800
  |   27: Species H             4.90726100       19.98929200       55.64675300
  |   28: Species C             6.16126700       20.22362400       57.80656700
  |   29: Species H             6.78676900       21.08679900       60.06499900
  |   30: Species C             6.04726200       22.61235100       61.37257000
  |   31: Species C             5.20524000       24.60017900       62.59707200
  |   32: Species H            -0.42865500       27.19735200       59.30582100
  |   33: Species H             3.39027100       20.54972500       53.80611400
  |   34: Species C             5.89155000       18.91425400       58.10508500
  |   35: Species C             7.40468500       20.53004100       57.33458000
  |   36: Species C             6.96584600       22.36948000       62.45891900
  |   37: Species C             4.19030900       25.69638700       62.62372600
  |   38: Species C             6.19340700       24.42701600       63.54948700
  |   39: Species H             4.90794500       18.64394900       58.49355900
  |   40: Species C             6.84501000       17.93340200       57.91007100
  |   41: Species C             8.35946400       19.54978800       57.13134800
  |   42: Species H             7.65361100       21.56600100       57.10691500
  |   43: Species C             6.94923200       23.17932600       63.57969400
  |   44: Species C             7.98848300       21.29911200       62.22570100
  |   45: Species C             4.14566700       26.66963900       61.63355200
  |   46: Species C             3.20113400       25.69801000       63.58480300
  |   47: Species C             6.57423100       25.48041100       64.51745000
  |   48: Species H             6.59685300       16.89939500       58.15594900
  |   49: Species C             8.07191600       18.25294300       57.40632200
  |   50: Species H             9.33463300       19.83321500       56.73665500
  |   51: Species C             7.63987000       22.81808200       64.84284400
  |   52: Species C             7.65255500       19.96717600       62.03868300
  |   53: Species C             9.31412300       21.66825800       62.07755300
  |   54: Species C             3.13552000       27.62162700       61.63377400
  |   55: Species H             4.90565600       26.68323700       60.85060800
  |   56: Species C             2.20491900       26.63845100       63.57258700
  |   57: Species H             3.20744900       24.93243300       64.35975100
  |   58: Species C             6.27643900       26.82576700       64.31732700
  |   59: Species C             7.36171200       25.14283400       65.64444500
  |   60: Species H             8.81332300       17.47345100       57.22552300
  |   61: Species C             8.01538800       21.51288600       65.14402700
  |   62: Species C             7.83792900       23.80463300       65.83479400
  |   63: Species H             6.62135400       19.63928100       62.17683700
  |   64: Species C             8.62615700       19.04558800       61.67464200
  |   65: Species C            10.27807000       20.74973600       61.71639900
  |   66: Species H             9.59544400       22.70991100       62.23702900
  |   67: Species C             2.16978300       27.59251800       62.60440200
  |   68: Species H             3.11691900       28.37967400       60.84972000
  |   69: Species H             1.43556500       26.61061200       64.34109300
  |   70: Species H             5.75603000       27.14307100       63.42243900
  |   71: Species C             6.65223600       27.80337000       65.23109500
  |   72: Species C             7.68555200       26.14157500       66.60396700
  |   73: Species H             7.78542100       20.70821700       64.45503700
  |   74: Species C             8.65342800       21.19240400       66.33632300
  |   75: Species C             8.51896500       23.47013000       67.03664100
  |   76: Species H             8.34498700       18.00483700       61.51627700
  |   77: Species C             9.92599700       19.44971900       61.49451000
  |   78: Species H            11.31026600       21.07234900       61.58779700
  |   79: Species H             1.36652800       28.32890900       62.60595700
  |   80: Species H             6.39932800       28.84367600       65.02475300
  |   81: Species C             7.30893700       27.46167600       66.36963900
  |   82: Species C             8.40303500       25.75530500       67.78471300
  |   83: Species H             8.92935800       20.15606100       66.53022600
  |   84: Species C             8.92310600       22.16260000       67.24831300
  |   85: Species C             8.78469500       24.49627000       67.99038800
  |   86: Species H            10.67469400       18.73130800       61.16023200
  |   87: Species H             7.56715200       28.21918500       67.11082600
  |   88: Species H             8.63131600       26.53324200       68.51235100
  |   89: Species H             9.45630800       21.93353900       68.17185400
  |   90: Species H             9.32815700       24.22003800       68.89571600
  |

  | The smallest distance between any two atoms is         1.08274276 AA.
  |
  | The first atom of this pair is atom number                     58 .
  | The second atom of this pair is atom number                    70 .

  Number of empty states per atom not set in control.in - providing a guess from actual geometry.
  | Total number of empty states used during s.c.f. cycle:      219
  If you use a very high smearing, use empty_states (per atom!) in control.in to increase this value.

  Structure-dependent array size parameters: 
  | Maximum number of distinct radial functions  :       18
  | Maximum number of basis functions            :     2694
  | Number of Kohn-Sham states (occupied + empty):      404
------------------------------------------------------------

------------------------------------------------------------
          Preparing all fixed parts of the calculation.
------------------------------------------------------------
  Determining machine precision:
    2.225073858507201E-308
  Setting up grids for atomic and cluster calculations.

  Creating wave function, potential, and density for free atoms.

  Species: H

  List of occupied orbitals and eigenvalues:
    n    l              occ      energy [Ha]    energy [eV]
    1    0           1.0000        -0.238386        -6.4868


  Species: C

  List of occupied orbitals and eigenvalues:
    n    l              occ      energy [Ha]    energy [eV]
    1    0           2.0000       -10.049212      -273.4530
    2    0           2.0000        -0.504761       -13.7352
    2    1           2.0000        -0.193631        -5.2690

  Creating fixed part of basis set: Ionic, confined, hydrogenic.
 
  H                    hydrogenic:
 
  List of hydrogenic basis orbitals: 
    n    l      effective z      eigenvalue [eV]  inner max. [A]     outer max. [A]     outer radius [A]   
    2    0         2.100000       -14.9965           0.193243           1.317208           5.373006
    2    1         3.500000       -41.6672           0.602369           0.602369           4.056063
    1    0         0.850000        -9.8292           0.624871           0.624871           5.373006
    2    1         3.700000       -46.5653           0.573622           0.573622           3.910002
    2    0         1.200000        -4.5995           0.334980           2.228188           5.505995
    3    2         7.000000       -74.0753           0.680699           0.680699           3.769201
 
 
  C                    hydrogenic:
 
  List of hydrogenic basis orbitals: 
    n    l      effective z      eigenvalue [eV]  inner max. [A]     outer max. [A]     outer radius [A]   
    2    1         1.700000        -9.8152           1.245706           1.245706           5.401630
    3    2         6.000000       -54.4226           0.792453           0.792453           4.178599
    2    0         4.900000       -81.6681           0.082559           0.562749           3.353238
    4    3         9.800000       -81.6681           0.863254           0.863254           4.028125
    3    1         5.200000       -40.8774           0.305389           1.215618           4.898362
    3    0         4.300000       -27.9508           0.091041           1.610311           5.401630
    5    4        14.400000      -112.8510           0.917666           0.917666           3.883070
    3    2         6.200000       -58.1113           0.763917           0.763917           4.077671
 

  Adding cutoff potential to free-atom effective potential.
  Creating atomic-like basis functions for current effective potential.

  Species H                   :

  List of atomic basis orbitals and eigenvalues:
    n    l      energy [Ha]    energy [eV]    outer radius [A]
    1    0        -0.238386        -6.4868       5.373006


  Species C                   :

  List of atomic basis orbitals and eigenvalues:
    n    l      energy [Ha]    energy [eV]    outer radius [A]
    1    0       -10.049212      -273.4530       1.934409
    2    0        -0.504761       -13.7352       5.271162
    2    1        -0.193631        -5.2690       5.401630

  Assembling full basis from fixed parts.
  | Species H :   atomic orbital   1 s accepted.
  | Species H :    hydro orbital   2 s accepted.
  | Species H :    hydro orbital   1 s accepted.
  | Species H :    hydro orbital   2 s accepted.
  | Species H :    hydro orbital   2 p accepted.
  | Species H :    hydro orbital   2 p accepted.
  | Species H :    hydro orbital   3 d accepted.
  | Species C :   atomic orbital   1 s accepted.
  | Species C :    hydro orbital   2 s accepted.
  | Species C :   atomic orbital   2 s accepted.
  | Species C :    hydro orbital   3 s accepted.
  | Species C :    hydro orbital   3 p accepted.
  | Species C :   atomic orbital   2 p accepted.
  | Species C :    hydro orbital   2 p accepted.
  | Species C :    hydro orbital   3 d accepted.
  | Species C :    hydro orbital   3 d accepted.
  | Species C :    hydro orbital   4 f accepted.
  | Species C :    hydro orbital   5 g accepted.
 
  Basis size parameters after reduction:
  | Total number of radial functions:       18
  | Total number of basis functions :     2694
 
  Per-task memory consumption for arrays in subroutine allocate_ext:
  |           4.475536MB.
  Testing on-site integration grid accuracy.
  |  Species  Function  <phi|h_atom|phi> (log., in eV)  <phi|h_atom|phi> (rad., in eV)
           1        1                 -6.4870767962                 -6.4871688290
           1        2                 13.5032046589                 13.5028982997
           1        3                 32.8195184817                 32.8119941656
           1        4                 33.8513856511                 33.7670005767 ***
           1        5                 28.8544614965                 28.8544615203
           1        6                 59.6326952547                 59.6327656460
           1        7                 60.2719308513                 60.2719305949
           2        8               -273.4529726040               -273.4529710464
           2        9                -10.7721037319                -10.7721022101
           2       10                 17.6044132601                 17.6044162063
           2       11                 53.7706460658                 53.7706913770
           2       12                 15.0973290362                 15.0973256030
           2       13                  3.8545134692                  3.8545724687
           2       14                 12.1156992592                 12.1182024431
           2       15                 29.4352039302                 29.4352041816
           2       16                 54.8741144708                 54.8740268729
           2       17                 59.3556032049                 59.3556031382
           2       18                 93.4551837154                 93.4551838009
 * Note: Onsite integrals marked "***" above are less accurate than
 * onsite_accuracy_threshold =    0.03000 eV. Usually, this is harmless.
 * When in doubt, tighten the "radial" and/or "radial_multiplier" flags to check.

  Preparing densities etc. for the partition functions (integrals / Hartree potential).

  Preparations completed.
  max(cpu_time)          :      0.238 s.
  Wall clock time (cpu1) :      0.320 s.
------------------------------------------------------------

------------------------------------------------------------
          Begin self-consistency loop: Initialization.

          Date     :  20210620, Time     :  162154.729
------------------------------------------------------------

  Initializing index lists of integration centers etc. from given atomic structure:
  | Number of centers in hartree potential         :        90
  | Number of centers in hartree multipole         :        90
  | Number of centers in electron density summation:        90
  | Number of centers in basis integrals           :        90
  | Number of centers in integrals                 :        90
  | Number of centers in hamiltonian               :        90
  * Using 56 tasks for Scalapack Eigenvalue solver.
  Detailed listing of tasks and assigned k-points:
  (for non-periodic systems, the "k-point" denotes an internal label only)
   Task     0 k-point     1 on d021
   Task     1 k-point     1 on d021
   Task     2 k-point     1 on d021
   Task     3 k-point     1 on d021
   Task     4 k-point     1 on d021
   Task     5 k-point     1 on d021
   Task     6 k-point     1 on d021
   Task     7 k-point     1 on d021
   Task     8 k-point     1 on d021
   Task     9 k-point     1 on d021
   Task    10 k-point     1 on d021
   Task    11 k-point     1 on d021
   Task    12 k-point     1 on d021
   Task    13 k-point     1 on d021
   Task    14 k-point     1 on d021
   Task    15 k-point     1 on d021
   Task    16 k-point     1 on d021
   Task    17 k-point     1 on d021
   Task    18 k-point     1 on d021
   Task    19 k-point     1 on d021
   Task    20 k-point     1 on d021
   Task    21 k-point     1 on d021
   Task    22 k-point     1 on d021
   Task    23 k-point     1 on d021
   Task    24 k-point     1 on d021
   Task    25 k-point     1 on d021
   Task    26 k-point     1 on d021
   Task    27 k-point     1 on d021
   Task    28 k-point     1 on d021
   Task    29 k-point     1 on d021
   Task    30 k-point     1 on d021
   Task    31 k-point     1 on d021
   Task    32 k-point     1 on d021
   Task    33 k-point     1 on d021
   Task    34 k-point     1 on d021
   Task    35 k-point     1 on d021
   Task    36 k-point     1 on d021
   Task    37 k-point     1 on d021
   Task    38 k-point     1 on d021
   Task    39 k-point     1 on d021
   Task    40 k-point     1 on d021
   Task    41 k-point     1 on d021
   Task    42 k-point     1 on d021
   Task    43 k-point     1 on d021
   Task    44 k-point     1 on d021
   Task    45 k-point     1 on d021
   Task    46 k-point     1 on d021
   Task    47 k-point     1 on d021
   Task    48 k-point     1 on d021
   Task    49 k-point     1 on d021
   Task    50 k-point     1 on d021
   Task    51 k-point     1 on d021
   Task    52 k-point     1 on d021
   Task    53 k-point     1 on d021
   Task    54 k-point     1 on d021
   Task    55 k-point     1 on d021
  Tasks:    56 split into      8 X      7 BLACS grid
  Calculating block size based on n_basis =         2694 max_nprow =            8 max_npcol =            7
  ScaLAPACK block size set to:           16
  Allocating        1.067 MB for ovlp
  Allocating        1.067 MB for ham
  Allocating        1.067 MB for eigenvec
  Required Scalapack workspace - INTEGER:            1 REAL:             1
  Partitioning the integration grid into batches with parallel hashing+maxmin method.
  | Number of batches:    13989
  | Maximal batch size:     200
  | Minimal batch size:       2
  | Average batch size:     107.489
  | Standard deviation of batch sizes:      29.624

  Integration load balanced across     56 MPI tasks.
  Work distribution over tasks is as follows:
  Task      0 has      26993 integration points.
  Task      1 has      26873 integration points.
  Task      2 has      26805 integration points.
  Task      3 has      26896 integration points.
  Task      4 has      26815 integration points.
  Task      5 has      26914 integration points.
  Task      6 has      26739 integration points.
  Task      7 has      26935 integration points.
  Task      8 has      26879 integration points.
  Task      9 has      26824 integration points.
  Task     10 has      26907 integration points.
  Task     11 has      26841 integration points.
  Task     12 has      26852 integration points.
  Task     13 has      26696 integration points.
  Task     14 has      26936 integration points.
  Task     15 has      26880 integration points.
  Task     16 has      26781 integration points.
  Task     17 has      26946 integration points.
  Task     18 has      26826 integration points.
  Task     19 has      26920 integration points.
  Task     20 has      26745 integration points.
  Task     21 has      26947 integration points.
  Task     22 has      26810 integration points.
  Task     23 has      26784 integration points.
  Task     24 has      26912 integration points.
  Task     25 has      26825 integration points.
  Task     26 has      26849 integration points.
  Task     27 has      26754 integration points.
  Task     28 has      26927 integration points.
  Task     29 has      26888 integration points.
  Task     30 has      26812 integration points.
  Task     31 has      26901 integration points.
  Task     32 has      26873 integration points.
  Task     33 has      26855 integration points.
  Task     34 has      26797 integration points.
  Task     35 has      26981 integration points.
  Task     36 has      26841 integration points.
  Task     37 has      26778 integration points.
  Task     38 has      26852 integration points.
  Task     39 has      26852 integration points.
  Task     40 has      26834 integration points.
  Task     41 has      26764 integration points.
  Task     42 has      26886 integration points.
  Task     43 has      26861 integration points.
  Task     44 has      26850 integration points.
  Task     45 has      26982 integration points.
  Task     46 has      26795 integration points.
  Task     47 has      26842 integration points.
  Task     48 has      26776 integration points.
  Task     49 has      26908 integration points.
  Task     50 has      26874 integration points.
  Task     51 has      26862 integration points.
  Task     52 has      26860 integration points.
  Task     53 has      26765 integration points.
  Task     54 has      26856 integration points.
  Task     55 has      26712 integration points.
  Initializing partition tables, free-atom densities, potentials, etc. across the integration grid (initialize_grid_storage).
  | initialize_grid_storage: Actual outermost partition radius vs. multipole_radius_free
  | (-- VB: in principle, multipole_radius_free should be larger, hence this output)
  | Species        1: Confinement radius =              6.000000000000000 AA, multipole_radius_free =              6.071692442739658 AA.
  | Species        1: outer_partition_radius set to              6.071692442739658 AA .
  | Species        2: Confinement radius =              6.000000000000000 AA, multipole_radius_free =              6.029870734432609 AA.
  | Species        2: outer_partition_radius set to              6.029870734432609 AA .
  | The sparse table of interatomic distances needs     95.9800 kbyte instead of    64.8000 kbyte of memory.
  | Using the partition_type stratmann_smoother will reduce your memory usage.
  | Net number of integration points:  1503668
  | of which are non-zero points    :  1171469
  Renormalizing the initial density to the exact electron count on the 3D integration grid.
  | Initial density: Formal number of electrons (from input files) :     370.0000000000
  | Integrated number of electrons on 3D grid     :     370.0000704665
  | Charge integration error                      :       0.0000704665
  | Normalization factor for density and gradient :       0.9999998095
  Obtaining max. number of non-zero basis functions in each batch (get_n_compute_maxes).
  | Maximal number of non-zero basis functions:     1157
  Selecting the method for density update.
  Loop over occupied states selected for charge density update.
  Hamiltonian matrix size:
  | Size of matrix non-packed:               3630165
  | Size of matrix packed:         2635204
  Allocating        8.707 MB for KS_eigenvector
  use_local_index: Max. local matrix size =      1684680
  Task:     0 matrix size:     352728
  Task:     1 matrix size:     333151
  Task:     2 matrix size:     427373
  Task:     3 matrix size:     924611
  Task:     4 matrix size:    1271304
  Task:     5 matrix size:     861104
  Task:     6 matrix size:    1326552
  Task:     7 matrix size:     394378
  Task:     8 matrix size:     724419
  Task:     9 matrix size:     514825
  Task:    10 matrix size:     527295
  Task:    11 matrix size:     388482
  Task:    12 matrix size:    1110458
  Task:    13 matrix size:     716415
  Task:    14 matrix size:     436316
  Task:    15 matrix size:     583810
  Task:    16 matrix size:    1019772
  Task:    17 matrix size:     272954
  Task:    18 matrix size:     452701
  Task:    19 matrix size:     713932
  Task:    20 matrix size:     478896
  Task:    21 matrix size:     846394
  Task:    22 matrix size:     979945
  Task:    23 matrix size:    1255168
  Task:    24 matrix size:    1518576
  Task:    25 matrix size:    1552780
  Task:    26 matrix size:    1100026
  Task:    27 matrix size:    1684680
  Task:    28 matrix size:    1633491
  Task:    29 matrix size:    1470274
  Task:    30 matrix size:    1050786
  Task:    31 matrix size:    1287952
  Task:    32 matrix size:    1399565
  Task:    33 matrix size:    1076090
  Task:    34 matrix size:    1064459
  Task:    35 matrix size:     603593
  Task:    36 matrix size:     552016
  Task:    37 matrix size:     483239
  Task:    38 matrix size:    1143380
  Task:    39 matrix size:     744804
  Task:    40 matrix size:     703184
  Task:    41 matrix size:     564113
  Task:    42 matrix size:     979211
  Task:    43 matrix size:     468784
  Task:    44 matrix size:     683860
  Task:    45 matrix size:     843839
  Task:    46 matrix size:     683122
  Task:    47 matrix size:     328965
  Task:    48 matrix size:     430570
  Task:    49 matrix size:    1176323
  Task:    50 matrix size:    1171128
  Task:    51 matrix size:     783762
  Task:    52 matrix size:     469108
  Task:    53 matrix size:     373597
  Task:    54 matrix size:     340348
  Task:    55 matrix size:     214780
  Integrating Hamiltonian matrix: batch-based integration.
  Time summed over all CPUs for integration: real work      374.635 s, elapsed      726.237 s
  Time get_set_sparse_local_matrix_scalapack:     0.033136 s
  Start compute_balanced_batch_distribution
  Done load balancing, time needed:      0.016 s
  Integrating overlap matrix with loadbalancing
  Time summed over all CPUs for integration: real work      110.155 s, elapsed      127.157 s
  Time get_set_full_local_matrix_scalapack:     0.041384 s

  Updating Kohn-Sham eigenvalues and eigenvectors using ELSI and the ELPA eigensolver.
  Overlap matrix is not singular
  | Lowest and highest eigenvalues :  0.13E+02,  0.83E-04
  Finished singularity check of overlap matrix
  | Time :     0.275 s
  Finished Cholesky decomposition
  | Time :     0.056 s
  Finished transformation to standard eigenproblem
  | Time :     0.089 s
  Starting ELPA eigensolver
  Finished solving standard eigenproblem
  | Time :     0.311 s
  Finished back-transformation of eigenvectors
  | Time :     0.018 s

  Obtaining occupation numbers and chemical potential using ELSI.
  | Chemical potential (Fermi level):    -7.75726010 eV
  Writing Kohn-Sham eigenvalues.

  State    Occupation    Eigenvalue [Ha]    Eigenvalue [eV]
      1       2.00000         -10.180634         -277.02914
      2       2.00000         -10.180130         -277.01543
      3       2.00000         -10.179764         -277.00548
      4       2.00000         -10.179159         -276.98901
      5       2.00000         -10.178108         -276.96040
      6       2.00000         -10.177834         -276.95296
      7       2.00000         -10.177794         -276.95188
      8       2.00000         -10.177083         -276.93253
      9       2.00000         -10.177037         -276.93126
     10       2.00000         -10.176739         -276.92315
     11       2.00000         -10.176698         -276.92204
     12       2.00000         -10.176560         -276.91829
     13       2.00000         -10.176406         -276.91410
     14       2.00000         -10.176228         -276.90925
     15       2.00000         -10.175991         -276.90280
     16       2.00000         -10.175803         -276.89768
     17       2.00000         -10.175772         -276.89685
     18       2.00000         -10.175577         -276.89155
     19       2.00000         -10.175420         -276.88725
     20       2.00000         -10.175399         -276.88670
     21       2.00000         -10.175232         -276.88214
     22       2.00000         -10.174944         -276.87431
     23       2.00000         -10.174639         -276.86601
     24       2.00000         -10.174585         -276.86454
     25       2.00000         -10.173952         -276.84731
     26       2.00000         -10.173902         -276.84596
     27       2.00000         -10.173250         -276.82822
     28       2.00000         -10.173133         -276.82504
     29       2.00000         -10.172629         -276.81133
     30       2.00000         -10.172369         -276.80425
     31       2.00000         -10.172307         -276.80254
     32       2.00000         -10.171996         -276.79410
     33       2.00000         -10.171949         -276.79282
     34       2.00000         -10.170837         -276.76255
     35       2.00000         -10.170293         -276.74776
     36       2.00000         -10.169772         -276.73357
     37       2.00000         -10.169688         -276.73129
     38       2.00000         -10.168890         -276.70956
     39       2.00000         -10.167792         -276.67971
     40       2.00000         -10.167729         -276.67798
     41       2.00000         -10.166724         -276.65063
     42       2.00000         -10.166223         -276.63701
     43       2.00000         -10.165483         -276.61685
     44       2.00000         -10.165379         -276.61404
     45       2.00000         -10.165180         -276.60863
     46       2.00000         -10.164801         -276.59831
     47       2.00000         -10.164756         -276.59710
     48       2.00000         -10.164165         -276.58101
     49       2.00000         -10.162976         -276.54865
     50       2.00000         -10.162780         -276.54332
     51       2.00000         -10.160922         -276.49275
     52       2.00000         -10.160615         -276.48440
     53       2.00000         -10.159841         -276.46333
     54       2.00000         -10.158894         -276.43758
     55       2.00000         -10.158450         -276.42550
     56       2.00000         -10.158049         -276.41457
     57       2.00000          -1.024955          -27.89044
     58       2.00000          -1.021205          -27.78841
     59       2.00000          -1.014409          -27.60347
     60       2.00000          -1.012709          -27.55721
     61       2.00000          -1.009048          -27.45759
     62       2.00000          -1.004222          -27.32627
     63       2.00000          -0.994440          -27.06009
     64       2.00000          -0.992293          -27.00167
     65       2.00000          -0.973506          -26.49046
     66       2.00000          -0.953778          -25.95363
     67       2.00000          -0.941278          -25.61347
     68       2.00000          -0.938256          -25.53124
     69       2.00000          -0.932856          -25.38431
     70       2.00000          -0.917781          -24.97408
     71       2.00000          -0.901218          -24.52339
     72       2.00000          -0.900600          -24.50658
     73       2.00000          -0.895354          -24.36382
     74       2.00000          -0.893541          -24.31449
     75       2.00000          -0.892780          -24.29377
     76       2.00000          -0.892166          -24.27706
     77       2.00000          -0.891853          -24.26857
     78       2.00000          -0.889882          -24.21491
     79       2.00000          -0.886439          -24.12124
     80       2.00000          -0.877668          -23.88256
     81       2.00000          -0.873808          -23.77753
     82       2.00000          -0.859697          -23.39356
     83       2.00000          -0.856338          -23.30215
     84       2.00000          -0.833488          -22.68036
     85       2.00000          -0.807798          -21.98130
     86       2.00000          -0.780699          -21.24389
     87       2.00000          -0.778549          -21.18540
     88       2.00000          -0.778277          -21.17798
     89       2.00000          -0.771035          -20.98094
     90       2.00000          -0.769735          -20.94555
     91       2.00000          -0.760270          -20.68801
     92       2.00000          -0.758904          -20.65082
     93       2.00000          -0.756664          -20.58988
     94       2.00000          -0.755200          -20.55004
     95       2.00000          -0.753633          -20.50741
     96       2.00000          -0.752008          -20.46317
     97       2.00000          -0.748181          -20.35903
     98       2.00000          -0.734071          -19.97509
     99       2.00000          -0.728743          -19.83009
    100       2.00000          -0.717157          -19.51482
    101       2.00000          -0.711418          -19.35866
    102       2.00000          -0.696661          -18.95712
    103       2.00000          -0.684415          -18.62387
    104       2.00000          -0.681785          -18.55230
    105       2.00000          -0.676698          -18.41388
    106       2.00000          -0.669391          -18.21506
    107       2.00000          -0.664711          -18.08771
    108       2.00000          -0.662856          -18.03724
    109       2.00000          -0.661968          -18.01306
    110       2.00000          -0.651334          -17.72370
    111       2.00000          -0.642667          -17.48785
    112       2.00000          -0.641767          -17.46338
    113       2.00000          -0.641026          -17.44320
    114       2.00000          -0.638530          -17.37528
    115       2.00000          -0.637752          -17.35412
    116       2.00000          -0.636473          -17.31930
    117       2.00000          -0.629536          -17.13056
    118       2.00000          -0.621801          -16.92006
    119       2.00000          -0.614752          -16.72826
    120       2.00000          -0.612923          -16.67848
    121       2.00000          -0.609903          -16.59632
    122       2.00000          -0.596855          -16.24126
    123       2.00000          -0.593092          -16.13886
    124       2.00000          -0.590444          -16.06680
    125       2.00000          -0.584575          -15.90708
    126       2.00000          -0.582370          -15.84710
    127       2.00000          -0.578780          -15.74940
    128       2.00000          -0.577753          -15.72147
    129       2.00000          -0.577479          -15.71400
    130       2.00000          -0.576795          -15.69539
    131       2.00000          -0.576644          -15.69127
    132       2.00000          -0.573035          -15.59307
    133       2.00000          -0.569744          -15.50352
    134       2.00000          -0.569049          -15.48462
    135       2.00000          -0.568079          -15.45821
    136       2.00000          -0.567483          -15.44201
    137       2.00000          -0.567122          -15.43217
    138       2.00000          -0.566773          -15.42269
    139       2.00000          -0.566257          -15.40863
    140       2.00000          -0.549806          -14.96097
    141       2.00000          -0.547531          -14.89907
    142       2.00000          -0.539649          -14.68458
    143       2.00000          -0.537128          -14.61599
    144       2.00000          -0.529356          -14.40450
    145       2.00000          -0.528626          -14.38465
    146       2.00000          -0.521512          -14.19107
    147       2.00000          -0.520870          -14.17359
    148       2.00000          -0.518863          -14.11897
    149       2.00000          -0.515683          -14.03245
    150       2.00000          -0.512216          -13.93810
    151       2.00000          -0.509861          -13.87403
    152       2.00000          -0.508466          -13.83606
    153       2.00000          -0.507622          -13.81310
    154       2.00000          -0.507182          -13.80114
    155       2.00000          -0.505601          -13.75810
    156       2.00000          -0.505134          -13.74540
    157       2.00000          -0.501861          -13.65632
    158       2.00000          -0.499872          -13.60220
    159       2.00000          -0.498898          -13.57570
    160       2.00000          -0.498451          -13.56354
    161       2.00000          -0.498337          -13.56043
    162       2.00000          -0.496462          -13.50943
    163       2.00000          -0.486892          -13.24900
    164       2.00000          -0.485230          -13.20377
    165       2.00000          -0.479305          -13.04256
    166       2.00000          -0.476559          -12.96783
    167       2.00000          -0.459643          -12.50752
    168       2.00000          -0.442352          -12.03702
    169       2.00000          -0.441828          -12.02275
    170       2.00000          -0.427284          -11.62699
    171       2.00000          -0.421324          -11.46482
    172       2.00000          -0.418671          -11.39262
    173       2.00000          -0.413698          -11.25729
    174       2.00000          -0.411493          -11.19730
    175       2.00000          -0.410348          -11.16614
    176       2.00000          -0.408714          -11.12167
    177       2.00000          -0.407491          -11.08838
    178       2.00000          -0.406636          -11.06514
    179       2.00000          -0.406437          -11.05973
    180       2.00000          -0.403449          -10.97840
    181       2.00000          -0.391262          -10.64679
    182       2.00000          -0.389085          -10.58755
    183       2.00000          -0.370297          -10.07629
    184       2.00000          -0.363418           -9.88912
    185       2.00000          -0.334913           -9.11343
    186       0.00000          -0.280834           -7.64189
    187       0.00000          -0.250016           -6.80328
    188       0.00000          -0.243019           -6.61289
    189       0.00000          -0.224441           -6.10734
    190       0.00000          -0.223535           -6.08270
    191       0.00000          -0.215808           -5.87244
    192       0.00000          -0.214601           -5.83958
    193       0.00000          -0.213826           -5.81851
    194       0.00000          -0.213293           -5.80400
    195       0.00000          -0.211722           -5.76124
    196       0.00000          -0.210987           -5.74125
    197       0.00000          -0.210505           -5.72813
    198       0.00000          -0.207648           -5.65039
    199       0.00000          -0.193901           -5.27631
    200       0.00000          -0.186091           -5.06379
    201       0.00000          -0.171026           -4.65385
    202       0.00000          -0.161259           -4.38807
    203       0.00000          -0.158322           -4.30817
    204       0.00000          -0.136136           -3.70446
    205       0.00000          -0.103783           -2.82408
    206       0.00000          -0.083800           -2.28031
    207       0.00000          -0.079538           -2.16434
    208       0.00000          -0.075987           -2.06772
    209       0.00000          -0.074248           -2.02039
    210       0.00000          -0.072985           -1.98602
    211       0.00000          -0.069430           -1.88928
    212       0.00000          -0.068894           -1.87471
    213       0.00000          -0.068350           -1.85989
    214       0.00000          -0.067115           -1.82628
    215       0.00000          -0.066501           -1.80959
    216       0.00000          -0.064177           -1.74635
    217       0.00000          -0.060785           -1.65405
    218       0.00000          -0.055305           -1.50492
    219       0.00000          -0.051364           -1.39769
    220       0.00000          -0.047383           -1.28936
    221       0.00000          -0.046888           -1.27589
    222       0.00000          -0.045349           -1.23402
    223       0.00000          -0.043716           -1.18959
    224       0.00000          -0.039035           -1.06220
    225       0.00000          -0.034372           -0.93531
    226       0.00000          -0.032699           -0.88980
    227       0.00000          -0.031237           -0.85001
    228       0.00000          -0.030462           -0.82890
    229       0.00000          -0.026513           -0.72146
    230       0.00000          -0.024599           -0.66937
    231       0.00000          -0.023045           -0.62710
    232       0.00000          -0.022880           -0.62260
    233       0.00000          -0.020801           -0.56602
    234       0.00000          -0.019112           -0.52005
    235       0.00000          -0.017570           -0.47811
    236       0.00000          -0.012441           -0.33853
    237       0.00000          -0.010927           -0.29734
    238       0.00000          -0.009522           -0.25911
    239       0.00000          -0.008127           -0.22115
    240       0.00000          -0.005471           -0.14888
    241       0.00000          -0.002030           -0.05525
    242       0.00000           0.000341            0.00929
    243       0.00000           0.002202            0.05992
    244       0.00000           0.003494            0.09508
    245       0.00000           0.005984            0.16283
    246       0.00000           0.007232            0.19680
    247       0.00000           0.007458            0.20293
    248       0.00000           0.009345            0.25429
    249       0.00000           0.009759            0.26556
    250       0.00000           0.014543            0.39572
    251       0.00000           0.015477            0.42115
    252       0.00000           0.019310            0.52544
    253       0.00000           0.022338            0.60786
    254       0.00000           0.026974            0.73400
    255       0.00000           0.027604            0.75115
    256       0.00000           0.029914            0.81400
    257       0.00000           0.035526            0.96670
    258       0.00000           0.038971            1.06046
    259       0.00000           0.039872            1.08497
    260       0.00000           0.042190            1.14804
    261       0.00000           0.043290            1.17797
    262       0.00000           0.043903            1.19467
    263       0.00000           0.044622            1.21423
    264       0.00000           0.046435            1.26356
    265       0.00000           0.048759            1.32680
    266       0.00000           0.049861            1.35678
    267       0.00000           0.051741            1.40795
    268       0.00000           0.054630            1.48655
    269       0.00000           0.057256            1.55801
    270       0.00000           0.058174            1.58298
    271       0.00000           0.059628            1.62256
    272       0.00000           0.060480            1.64575
    273       0.00000           0.062148            1.69113
    274       0.00000           0.062479            1.70013
    275       0.00000           0.063641            1.73176
    276       0.00000           0.065312            1.77722
    277       0.00000           0.065542            1.78349
    278       0.00000           0.067116            1.82631
    279       0.00000           0.070235            1.91118
    280       0.00000           0.070433            1.91659
    281       0.00000           0.072696            1.97817
    282       0.00000           0.073782            2.00772
    283       0.00000           0.074899            2.03811
    284       0.00000           0.075375            2.05105
    285       0.00000           0.077028            2.09605
    286       0.00000           0.080658            2.19481
    287       0.00000           0.081589            2.22016
    288       0.00000           0.083297            2.26664
    289       0.00000           0.084163            2.29018
    290       0.00000           0.085589            2.32899
    291       0.00000           0.087676            2.38578
    292       0.00000           0.089595            2.43800
    293       0.00000           0.091564            2.49160
    294       0.00000           0.092513            2.51741
    295       0.00000           0.092706            2.52265
    296       0.00000           0.095174            2.58982
    297       0.00000           0.097778            2.66068
    298       0.00000           0.099290            2.70183
    299       0.00000           0.101158            2.75266
    300       0.00000           0.103671            2.82103
    301       0.00000           0.104264            2.83716
    302       0.00000           0.106240            2.89094
    303       0.00000           0.107437            2.92351
    304       0.00000           0.108503            2.95251
    305       0.00000           0.110467            3.00596
    306       0.00000           0.111210            3.02619
    307       0.00000           0.112540            3.06238
    308       0.00000           0.114077            3.10418
    309       0.00000           0.115330            3.13830
    310       0.00000           0.116534            3.17106
    311       0.00000           0.117551            3.19872
    312       0.00000           0.121790            3.31407
    313       0.00000           0.122383            3.33021
    314       0.00000           0.124570            3.38973
    315       0.00000           0.126311            3.43709
    316       0.00000           0.127143            3.45972
    317       0.00000           0.127421            3.46731
    318       0.00000           0.127746            3.47614
    319       0.00000           0.131063            3.56641
    320       0.00000           0.132925            3.61709
    321       0.00000           0.134055            3.64783
    322       0.00000           0.135968            3.69987
    323       0.00000           0.136429            3.71243
    324       0.00000           0.139066            3.78419
    325       0.00000           0.140777            3.83075
    326       0.00000           0.141226            3.84295
    327       0.00000           0.145472            3.95850
    328       0.00000           0.147144            4.00398
    329       0.00000           0.148831            4.04990
    330       0.00000           0.149775            4.07557
    331       0.00000           0.151064            4.11067
    332       0.00000           0.151627            4.12597
    333       0.00000           0.152707            4.15537
    334       0.00000           0.154699            4.20957
    335       0.00000           0.156026            4.24569
    336       0.00000           0.156821            4.26731
    337       0.00000           0.158707            4.31863
    338       0.00000           0.160386            4.36432
    339       0.00000           0.161053            4.38247
    340       0.00000           0.161576            4.39670
    341       0.00000           0.164915            4.48757
    342       0.00000           0.165546            4.50474
    343       0.00000           0.167184            4.54931
    344       0.00000           0.169837            4.62149
    345       0.00000           0.170896            4.65033
    346       0.00000           0.171854            4.67638
    347       0.00000           0.173591            4.72364
    348       0.00000           0.176804            4.81107
    349       0.00000           0.177978            4.84303
    350       0.00000           0.179733            4.89080
    351       0.00000           0.183876            5.00352
    352       0.00000           0.184137            5.01062
    353       0.00000           0.186046            5.06256
    354       0.00000           0.186572            5.07687
    355       0.00000           0.188039            5.11681
    356       0.00000           0.189350            5.15246
    357       0.00000           0.191639            5.21476
    358       0.00000           0.193662            5.26981
    359       0.00000           0.194486            5.29223
    360       0.00000           0.198808            5.40984
    361       0.00000           0.200797            5.46398
    362       0.00000           0.201989            5.49639
    363       0.00000           0.202182            5.50166
    364       0.00000           0.204263            5.55829
    365       0.00000           0.206173            5.61025
    366       0.00000           0.207774            5.65383
    367       0.00000           0.208488            5.67325
    368       0.00000           0.209181            5.69210
    369       0.00000           0.212246            5.77552
    370       0.00000           0.212856            5.79211
    371       0.00000           0.213984            5.82280
    372       0.00000           0.217874            5.92866
    373       0.00000           0.219790            5.98078
    374       0.00000           0.223183            6.07311
    375       0.00000           0.224803            6.11721
    376       0.00000           0.225797            6.14424
    377       0.00000           0.227306            6.18531
    378       0.00000           0.229098            6.23407
    379       0.00000           0.229701            6.25047
    380       0.00000           0.231816            6.30805
    381       0.00000           0.232257            6.32004
    382       0.00000           0.234749            6.38786
    383       0.00000           0.237243            6.45572
    384       0.00000           0.240559            6.54595
    385       0.00000           0.242975            6.61169
    386       0.00000           0.243598            6.62865
    387       0.00000           0.244593            6.65570
    388       0.00000           0.247331            6.73021
    389       0.00000           0.249586            6.79158
    390       0.00000           0.251800            6.85184
    391       0.00000           0.254522            6.92589
    392       0.00000           0.256130            6.96965
    393       0.00000           0.258571            7.03607
    394       0.00000           0.260493            7.08838
    395       0.00000           0.265189            7.21615
    396       0.00000           0.267333            7.27450
    397       0.00000           0.268079            7.29480
    398       0.00000           0.269324            7.32869
    399       0.00000           0.271987            7.40114
    400       0.00000           0.277061            7.53922
    401       0.00000           0.277915            7.56245
    402       0.00000           0.281468            7.65914
    403       0.00000           0.285971            7.78166
    404       0.00000           0.287396            7.82045

  Highest occupied state (VBM) at     -9.11343372 eV
  | Occupation number:      2.00000000

  Lowest unoccupied state (CBM) at    -7.64189318 eV
  | Occupation number:      0.00000000

  Overall HOMO-LUMO gap:      1.47154054 eV.
  Calculating total energy contributions from superposition of free atom densities.

  Total energy components:
  | Sum of eigenvalues            :       -1306.80352945 Ha      -35559.93330579 eV
  | XC energy correction          :        -309.06441980 Ha       -8410.07076237 eV
  | XC potential correction       :         397.00992048 Ha       10803.18959639 eV
  | Free-atom electrostatic energy:        -937.38450695 Ha      -25507.53024303 eV
  | Hartree energy correction     :           0.00000000 Ha           0.00000000 eV
  | Entropy correction            :           0.00000000 Ha           0.00000000 eV
  | ---------------------------
  | Total energy                  :       -2156.24253572 Ha      -58674.34471481 eV
  | Total energy, T -> 0          :       -2156.24253572 Ha      -58674.34471481 eV  <-- do not rely on this value for anything but (periodic) metals
  | Electronic free energy        :       -2156.24253572 Ha      -58674.34471481 eV

  Derived energy quantities:
  | Kinetic energy                :        2136.69214060 Ha       58142.35139606 eV
  | Electrostatic energy          :       -3983.87025653 Ha     -108406.62534850 eV
  | Energy correction for multipole
  | error in Hartree potential    :           0.00000000 Ha           0.00000000 eV
[...]
    234       0.00000           0.074264            2.02083
    235       0.00000           0.076608            2.08460
    236       0.00000           0.081055            2.20561
    237       0.00000           0.083914            2.28342
    238       0.00000           0.086026            2.34088
    239       0.00000           0.093391            2.54131
    240       0.00000           0.095519            2.59921
    241       0.00000           0.101791            2.76987
    242       0.00000           0.102657            2.79343
    243       0.00000           0.104847            2.85303
    244       0.00000           0.105243            2.86381
    245       0.00000           0.107962            2.93779
    246       0.00000           0.111096            3.02308
    247       0.00000           0.114016            3.10253
    248       0.00000           0.115054            3.13078
    249       0.00000           0.117624            3.20071
    250       0.00000           0.119171            3.24281
    251       0.00000           0.123989            3.37390
    252       0.00000           0.127358            3.46559
    253       0.00000           0.129487            3.52351
    254       0.00000           0.134124            3.64971
    255       0.00000           0.134863            3.66981
    256       0.00000           0.136256            3.70771
    257       0.00000           0.138621            3.77208
    258       0.00000           0.140995            3.83667
    259       0.00000           0.141999            3.86398
    260       0.00000           0.144648            3.93607
    261       0.00000           0.147817            4.02230
    262       0.00000           0.148246            4.03397
    263       0.00000           0.150026            4.08242
    264       0.00000           0.152765            4.15694
    265       0.00000           0.153900            4.18782
    266       0.00000           0.155850            4.24090
    267       0.00000           0.156599            4.26128
    268       0.00000           0.159622            4.34354
    269       0.00000           0.160608            4.37036
    270       0.00000           0.162779            4.42945
    271       0.00000           0.165970            4.51628
    272       0.00000           0.167148            4.54833
    273       0.00000           0.168949            4.59734
    274       0.00000           0.169625            4.61572
    275       0.00000           0.172056            4.68188
    276       0.00000           0.174286            4.74257
    277       0.00000           0.175427            4.77362
    278       0.00000           0.176606            4.80570
    279       0.00000           0.177535            4.83097
    280       0.00000           0.180803            4.91991
    281       0.00000           0.181590            4.94131
    282       0.00000           0.183943            5.00535
    283       0.00000           0.186378            5.07160
    284       0.00000           0.187080            5.09070
    285       0.00000           0.188191            5.12093
    286       0.00000           0.191098            5.20005
    287       0.00000           0.191895            5.22174
    288       0.00000           0.194485            5.29220
    289       0.00000           0.196166            5.33795
    290       0.00000           0.197753            5.38112
    291       0.00000           0.198968            5.41419
    292       0.00000           0.202280            5.50431
    293       0.00000           0.204519            5.56524
    294       0.00000           0.205379            5.58865
    295       0.00000           0.207328            5.64167
    296       0.00000           0.208204            5.66552
    297       0.00000           0.208913            5.68482
    298       0.00000           0.212180            5.77371
    299       0.00000           0.213829            5.81859
    300       0.00000           0.215306            5.85877
    301       0.00000           0.215558            5.86563
    302       0.00000           0.217166            5.90938
    303       0.00000           0.218339            5.94132
    304       0.00000           0.220846            6.00953
    305       0.00000           0.222160            6.04527
    306       0.00000           0.222975            6.06745
    307       0.00000           0.224336            6.10448
    308       0.00000           0.225632            6.13976
    309       0.00000           0.226498            6.16333
    310       0.00000           0.227750            6.19740
    311       0.00000           0.228732            6.22412
    312       0.00000           0.229518            6.24550
    313       0.00000           0.229946            6.25714
    314       0.00000           0.230758            6.27924
    315       0.00000           0.232290            6.32094
    316       0.00000           0.233014            6.34064
    317       0.00000           0.234520            6.38161
    318       0.00000           0.237414            6.46035
    319       0.00000           0.238696            6.49524
    320       0.00000           0.240454            6.54309
    321       0.00000           0.242356            6.59484
    322       0.00000           0.243017            6.61282
    323       0.00000           0.244322            6.64834
    324       0.00000           0.245322            6.67554
    325       0.00000           0.246295            6.70203
    326       0.00000           0.251261            6.83716
    327       0.00000           0.252466            6.86996
    328       0.00000           0.253145            6.88844
    329       0.00000           0.253476            6.89744
    330       0.00000           0.256484            6.97928
    331       0.00000           0.258172            7.02523
    332       0.00000           0.259069            7.04962
    333       0.00000           0.260523            7.08918
    334       0.00000           0.263434            7.16839
    335       0.00000           0.264387            7.19434
    336       0.00000           0.265322            7.21979
    337       0.00000           0.267921            7.29051
    338       0.00000           0.269367            7.32984
    339       0.00000           0.270437            7.35897
    340       0.00000           0.271729            7.39412
    341       0.00000           0.275046            7.48437
    342       0.00000           0.276039            7.51140
    343       0.00000           0.277080            7.53973
    344       0.00000           0.280881            7.64317
    345       0.00000           0.282734            7.69359
    346       0.00000           0.283464            7.71343
    347       0.00000           0.285041            7.75636
    348       0.00000           0.286601            7.79880
    349       0.00000           0.289493            7.87751
    350       0.00000           0.289628            7.88118
    351       0.00000           0.291752            7.93898
    352       0.00000           0.292218            7.95164
    353       0.00000           0.293332            7.98198
    354       0.00000           0.297485            8.09499
    355       0.00000           0.298547            8.12387
    356       0.00000           0.299049            8.13755
    357       0.00000           0.301459            8.20313
    358       0.00000           0.304861            8.29568
    359       0.00000           0.306154            8.33086
    360       0.00000           0.307265            8.36110
    361       0.00000           0.312168            8.49452
    362       0.00000           0.316034            8.59973
    363       0.00000           0.316528            8.61316
    364       0.00000           0.317720            8.64559
    365       0.00000           0.320285            8.71539
    366       0.00000           0.321046            8.73610
    367       0.00000           0.323713            8.80868
    368       0.00000           0.324495            8.82994
    369       0.00000           0.326942            8.89655
    370       0.00000           0.329419            8.96394
    371       0.00000           0.331370            9.01705
    372       0.00000           0.332986            9.06101
    373       0.00000           0.337469            9.18300
    374       0.00000           0.339541            9.23938
    375       0.00000           0.341620            9.29594
    376       0.00000           0.344274            9.36817
    377       0.00000           0.345607            9.40445
    378       0.00000           0.347252            9.44920
    379       0.00000           0.348580            9.48535
    380       0.00000           0.354526            9.64715
    381       0.00000           0.356161            9.69163
    382       0.00000           0.357604            9.73089
    383       0.00000           0.360324            9.80490
    384       0.00000           0.361217            9.82921
    385       0.00000           0.364403            9.91590
    386       0.00000           0.367108            9.98952
    387       0.00000           0.368087           10.01616
    388       0.00000           0.371270           10.10277
    389       0.00000           0.372268           10.12992
    390       0.00000           0.374097           10.17969
    391       0.00000           0.374546           10.19191
    392       0.00000           0.376965           10.25774
    393       0.00000           0.379368           10.32312
    394       0.00000           0.382208           10.40041
    395       0.00000           0.383755           10.44251
    396       0.00000           0.385097           10.47902
    397       0.00000           0.388221           10.56404
    398       0.00000           0.391202           10.64515
    399       0.00000           0.396557           10.79086
    400       0.00000           0.396845           10.79870
    401       0.00000           0.399183           10.86233
    402       0.00000           0.401553           10.92682
    403       0.00000           0.402973           10.96545
    404       0.00000           0.404157           10.99767

  Highest occupied state (VBM) at     -4.42019989 eV
  | Occupation number:      2.00000000

  Lowest unoccupied state (CBM) at    -3.04613003 eV
  | Occupation number:      0.00000000

  Overall HOMO-LUMO gap:      1.37406986 eV.

  Total energy components:
  | Sum of eigenvalues            :       -1224.91522635 Ha      -33331.63920424 eV
  | XC energy correction          :        -314.87377811 Ha       -8568.15144507 eV
  | XC potential correction       :         404.51245371 Ha       11007.34391303 eV
  | Free-atom electrostatic energy:        -937.38450695 Ha      -25507.53024303 eV
  | Hartree energy correction     :         -80.88498919 Ha       -2200.99254108 eV
  | Entropy correction            :           0.00000000 Ha           0.00000000 eV
  | ---------------------------
  | Total energy                  :       -2153.54604689 Ha      -58600.96952040 eV
  | Total energy, T -> 0          :       -2153.54604689 Ha      -58600.96952040 eV  <-- do not rely on this value for anything but (periodic) metals
  | Electronic free energy        :       -2153.54604689 Ha      -58600.96952040 eV

  Derived energy quantities:
  | Kinetic energy                :        2149.12713440 Ha       58480.72479354 eV
  | Electrostatic energy          :       -3987.79940318 Ha     -108513.54286887 eV
  | Energy correction for multipole
  | error in Hartree potential    :          -0.26414093 Ha          -7.18764038 eV
  | Sum of eigenvalues per atom                           :        -370.35154671 eV
  | Total energy (T->0) per atom                          :        -651.12188356 eV  <-- do not rely on this value for anything but (periodic) metals
  | Electronic free energy per atom                       :        -651.12188356 eV
  End evaluation of scaled ZORA corrections.
  | Time for scaled ZORA corrections           :       14.231 s          14.244 s
------------------------------------------------------------

  Energy and forces in a compact form:
  | Total energy uncorrected      :         -0.586009695203960E+05 eV
  | Total energy corrected        :         -0.586009695203960E+05 eV  <-- do not rely on this value for anything but (periodic) metals
  | Electronic free energy        :         -0.586009695203960E+05 eV

  ------------------------------------ 
  Start decomposition of the XC Energy 
  ------------------------------------ 
  X and C from original XC functional choice 
  Hartree-Fock Energy :          0.000000000 Ha              0.000000000 eV
  X Energy            :       -302.435842345 Ha          -8229.697992641 eV
  C Energy            :        -12.437935763 Ha           -338.453452428 eV
  Total XC Energy     :       -314.873778108 Ha          -8568.151445069 eV
  ------------------------------------ 
  LDA X and C from self-consistent density 
  X Energy LDA        :       -273.980596717 Ha          -7455.391362817 eV
  C Energy LDA        :        -23.910967769 Ha           -650.650537721 eV
  ------------------------------------ 
  End decomposition of the XC Energy 
  ------------------------------------ 

------------------------------------------------------------

------------------------------------------------------------------------------
  Final output of selected total energy values:

  The following output summarizes some interesting total energy values
  at the end of a run (AFTER all relaxation, molecular dynamics, etc.).

  | Total energy of the DFT / Hartree-Fock s.c.f. calculation      :         -58600.969520396 eV
  | Final zero-broadening corrected energy (caution - metals only) :         -58600.969520396 eV
  | For reference only, the value of 1 Hartree used in FHI-aims is :             27.211384500 eV

  Before relying on these values, please be sure to understand exactly which
  total energy value is referred to by a given number. Different objects may
  all carry the same name 'total energy'. Definitions:

  Total energy of the DFT / Hartree-Fock s.c.f. calculation:
  | Note that this energy does not include ANY quantities calculated after the
  | s.c.f. cycle, in particular not ANY RPA, MP2, etc. many-body perturbation terms.
  | Scalar relativistic effects have been included in the 'scaled ZORA' approximation.

  Final zero-broadening corrected energy:
  | For metallic systems only, a broadening of the occupation numbers at the Fermi
  | level can be extrapolated back to zero broadening by an electron-gas inspired
  | formula. For all systems that are not real metals, this value can be
  | meaningless and should be avoided.

------------------------------------------------------------------------------
  Methods described in the following list of references were used in this FHI-aims run.
  If you publish the results, please make sure to cite these reference if they apply.
  FHI-aims is an academic code, and for our developers (often, Ph.D. students
  and postdocs), scientific credit in the community is essential.
  Thank you for helping us!

  For any use of FHI-aims, please cite:

    Volker Blum, Ralf Gehrke, Felix Hanke, Paula Havu, Ville Havu,
    Xinguo Ren, Karsten Reuter, and Matthias Scheffler
    'Ab initio molecular simulations with numeric atom-centered orbitals'
    Computer Physics Communications 180, 2175-2196 (2009)
    http://dx.doi.org/10.1016/j.cpc.2009.06.022


  The scalable eigensolver library ELPA was used in your run.
  ELPA is essential especially for large systems on hundreds or thousands of CPUs.
  For ELPA, please cite:

    Andreas Marek, Volker Blum, Rainer Johanni, Ville Havu, Bruno Lang,
    Thomas Auckenthaler, Alexander Heinecke, Hans-Joachim Bungartz, and Hermann Lederer,
    'The ELPA Library - Scalable Parallel Eigenvalue Solutions
    for Electronic Structure Theory and Computational Science'
    The Journal of Physics: Condensed Matter 26, 213201 (2014).
    http://dx.doi.org/10.1088/0953-8984/26/21/213201


  The ELSI infrastructure was used in your run to solve the Kohn-Sham electronic structure.
  Please check out http://elsi-interchange.org to learn more.
  If scalability is important for your project, please acknowledge ELSI by citing:

    V. W-z. Yu, F. Corsetti, A. Garcia, W. P. Huhn, M. Jacquelin, W. Jia,
    B. Lange, L. Lin, J. Lu, W. Mi, A. Seifitokaldani, A. Vazquez-Mayagoitia,
    C. Yang, H. Yang, and V. Blum
    'ELSI: A unified software interface for Kohn-Sham electronic structure solvers'
    Computer Physics Communications 222, 267-285 (2018).
    http://dx.doi.org/10.1016/j.cpc.2017.09.007


  For the real-space grid partitioning and parallelization used in this calculation, please cite:

    Ville Havu, Volker Blum, Paula Havu, and Matthias Scheffler,
    'Efficient O(N) integration for all-electron electronic structure calculation'
    'using numerically tabulated basis functions'
    Journal of Computational Physics 228, 8367-8379 (2009).
    http://dx.doi.org/10.1016/j.jcp.2009.08.008

  Of course, there are many other important community references, e.g., those cited in the
  above references. Our list is limited to references that describe implementations in the
  FHI-aims code. The reason is purely practical (length of this list) - please credit others as well.

------------------------------------------------------------
          Leaving FHI-aims.
          Date     :  20210620, Time     :  162658.444

          Computational steps:
          | Number of self-consistency cycles          :           19
          | Number of SCF (re)initializations          :            1

          Detailed time accounting                     :  max(cpu_time)    wall_clock(cpu1)
          | Total time                                 :      303.843 s         304.581 s
          | Preparation time                           :        0.238 s           0.320 s
          | Boundary condition initalization           :        0.001 s           0.035 s
          | Grid partitioning                          :        1.969 s           1.978 s
          | Preloading free-atom quantities on grid    :        0.014 s           0.017 s
          | Free-atom superposition energy             :        0.180 s           0.180 s
          | Total time for integrations                :      161.544 s         161.551 s
          | Total time for solution of K.-S. equations :       10.986 s          11.014 s
          | Total time for density update              :       80.385 s          80.308 s
          | Total time for mixing                      :        0.303 s           0.308 s
          | Total time for Hartree multipole update    :        0.317 s           0.324 s
          | Total time for Hartree multipole sum       :       30.599 s          30.602 s
          | Total time for total energy evaluation     :        0.010 s           0.036 s
          | Total time for scaled ZORA corrections     :       14.231 s          14.244 s

          Partial memory accounting:
          | Residual value for overall tracked memory usage across tasks :     0.000000 MB (should be 0.000000 MB)
          | Peak values for overall tracked memory usage (after allocating zora_vector2):
          |   Minimum:       43.414 MB (on task 56)
          |   Maximum:       61.601 MB (on task 29)
          |   Average:       50.575 MB
          | Largest tracked array allocation (hamiltonian_shell):
          |   Minimum:       10.709 MB (on task  1)
          |   Maximum:       15.817 MB (on task 29)
          |   Average:       11.175 MB
          Note:  These values currently only include a subset of arrays which are explicitly tracked.
          The "true" memory usage will be greater.

          Have a nice day.
------------------------------------------------------------
