  MPI-parallelism will be employed.
------------------------------------------------------------
          Invoking FHI-aims ...
          Version 180607
          Git rev. (modified): 6724847 Fix JSON memory corruption in scf_solver
          Compiled on 2018/06/27 at 16:00:31 on host coe.psc.edu.

          When using FHI-aims, please cite the following reference:

          Volker Blum, Ralf Gehrke, Felix Hanke, Paula Havu,
          Ville Havu, Xinguo Ren, Karsten Reuter, and Matthias Scheffler,
          'Ab Initio Molecular Simulations with Numeric Atom-Centered Orbitals',
          Computer Physics Communications 180, 2175-2196 (2009)

          For any questions about FHI-aims, please visit the aimsclub website
          with its forums and wiki. Contributions to both the forums and the
          wiki are warmly encouraged - they are for you, and everyone is welcome there.

------------------------------------------------------------



  Date     :  20210727, Time     :  231629.514
  Time zero on CPU 1             :   0.416845000000000E+00  s.
  Internal wall clock time zero  :           396659789.514  s.

  FHI-aims created a unique identifier for this run for later identification
  aims_uuid : 409BFC3D-8E21-44CB-A9CD-67C04F523E93

  Using       56 parallel tasks.
  Task        0 on host d032 reporting.
  Task        1 on host d032 reporting.
  Task        2 on host d032 reporting.
  Task        3 on host d032 reporting.
  Task        4 on host d032 reporting.
  Task        5 on host d032 reporting.
  Task        6 on host d032 reporting.
  Task        7 on host d032 reporting.
  Task        8 on host d032 reporting.
  Task        9 on host d032 reporting.
  Task       10 on host d032 reporting.
  Task       11 on host d032 reporting.
  Task       12 on host d032 reporting.
  Task       13 on host d032 reporting.
  Task       14 on host d032 reporting.
  Task       15 on host d032 reporting.
  Task       16 on host d032 reporting.
  Task       17 on host d032 reporting.
  Task       18 on host d032 reporting.
  Task       19 on host d032 reporting.
  Task       20 on host d032 reporting.
  Task       21 on host d032 reporting.
  Task       22 on host d032 reporting.
  Task       23 on host d032 reporting.
  Task       24 on host d032 reporting.
  Task       25 on host d032 reporting.
  Task       26 on host d032 reporting.
  Task       27 on host d032 reporting.
  Task       28 on host d032 reporting.
  Task       29 on host d032 reporting.
  Task       30 on host d032 reporting.
  Task       31 on host d032 reporting.
  Task       32 on host d032 reporting.
  Task       33 on host d032 reporting.
  Task       34 on host d032 reporting.
  Task       35 on host d032 reporting.
  Task       36 on host d032 reporting.
  Task       37 on host d032 reporting.
  Task       38 on host d032 reporting.
  Task       39 on host d032 reporting.
  Task       40 on host d032 reporting.
  Task       41 on host d032 reporting.
  Task       42 on host d032 reporting.
  Task       43 on host d032 reporting.
  Task       44 on host d032 reporting.
  Task       45 on host d032 reporting.
  Task       46 on host d032 reporting.
  Task       47 on host d032 reporting.
  Task       48 on host d032 reporting.
  Task       49 on host d032 reporting.
  Task       50 on host d032 reporting.
  Task       51 on host d032 reporting.
  Task       52 on host d032 reporting.
  Task       53 on host d032 reporting.
  Task       54 on host d032 reporting.
  Task       55 on host d032 reporting.

  Performing system and environment tests:
  *** Environment variable OMP_NUM_THREADS is not set
  *** For performance reasons you might want to set it to 1
  | Stacksize not measured: no C compiler
  | Checking for scalapack...
  | Testing pdtran()...
  | All pdtran() tests passed.

  Obtaining array dimensions for all initial allocations:
  
  -----------------------------------------------------------------------
  Parsing control.in (first pass over file, find array dimensions only).
  The contents of control.in will be repeated verbatim below
  unless switched off by setting 'verbatim_writeout .false.' .
  in the first line of control.in .
  -----------------------------------------------------------------------
  
  #===============================================================================
  # FHI-aims file: ./Runs/es/control.in
  # Created using the Atomic Simulation Environment (ASE)
  # Mon Jan 13 16:04:38 2020
  #===============================================================================
  xc                                 pbe
  relativistic                       zora scalar 1e-12
  occupation_type                    gaussian 0.0001
  load_balancing                     .true.
  KS_method                          scalapack_fast
  mixer                              pulay
  n_max_pulay                        5
  charge_mix_param                   0.4
  sc_accuracy_etot                   1e-6
  sc_accuracy_eev                    1e-4
  sc_accuracy_rho                    1e-6
  sc_iter_limit                      100
  prodbas_threshold                  1e-4
  basis_threshold                    1e-5
  override_illconditioning           .true.
  use_logsbt                         .true.
  spin                               none
  charge                             0
  #===============================================================================
  
  ################################################################################
  #
  #  FHI-aims code project
  # Volker Blum, Fritz Haber Institute Berlin, 2009
  #
  #  Suggested "tight" defaults for H atom (to be pasted into control.in file)
  #
  ################################################################################
    species        H
  #     global species definitions
      nucleus             1
      mass                1.00794
  #
      l_hartree           6
  #
      cut_pot             4.0  2.0  1.0
      basis_dep_cutoff    1e-4
  #
      radial_base         24 7.0
      radial_multiplier   2
      angular_grids       specified
        division   0.1930   50
        division   0.3175  110
        division   0.4293  194
        division   0.5066  302
        division   0.5626  434
  #      division   0.5922  590
  #      division   0.6227  974
  #      division   0.6868 1202
  #      outer_grid  770
        outer_grid  434
  ################################################################################
  #
  #  Definition of "minimal" basis
  #
  ################################################################################
  #     valence basis states
      valence      1  s   1.
  #     ion occupancy
      ion_occ      1  s   0.5
  ################################################################################
  #
  #  Suggested additional basis functions. For production calculations,
  #  uncomment them one after another (the most important basis functions are
  #  listed first).
  #
  #  Basis constructed for dimers: 0.5 A, 0.7 A, 1.0 A, 1.5 A, 2.5 A
  #
  ################################################################################
  #  "First tier" - improvements: -1014.90 meV to -62.69 meV
       hydro 2 s 2.1
       hydro 2 p 3.5
  #  "Second tier" - improvements: -12.89 meV to -1.83 meV
       hydro 1 s 0.85
       hydro 2 p 3.7
       hydro 2 s 1.2
       hydro 3 d 7
  #  "Third tier" - improvements: -0.25 meV to -0.12 meV
  #     hydro 4 f 11.2
  #     hydro 3 p 4.8
  #     hydro 4 d 9
  #     hydro 3 s 3.2
  ################################################################################
  #
  # For methods that use the localized form of the "resolution of identity" for
  # the two-electron Coulomb operator (RI_method LVL), particularly Hartree-Fock and
  # hybrid density functional calculations, the highest accuracy can be obtained by
  # uncommenting the line beginning with "for_aux"  below, thus adding an extra g radial
  # function to the construction of the product basis set for the expansion.
  # See Ref. New J. Phys. 17, 093020 (2015) for more information, particularly Figs. 1 and 6.
  #
  ################################################################################
  #
  # for_aux hydro 5 g 6.0
  ################################################################################
  #
  #  FHI-aims code project
  # Volker Blum, Fritz Haber Institute Berlin, 2009
  #
  #  Suggested "tight" defaults for C atom (to be pasted into control.in file)
  #
  ################################################################################
    species        C
  #     global species definitions
      nucleus             6
      mass                12.0107
  #
      l_hartree           6
  #
      cut_pot             4.0  2.0  1.0
      basis_dep_cutoff    1e-4
  #
      radial_base         34 7.0
      radial_multiplier   2
      angular_grids specified
        division   0.2187   50
        division   0.4416  110
        division   0.6335  194
        division   0.7727  302
        division   0.8772  434
  #      division   0.9334  590
  #      division   0.9924  770
  #      division   1.0230  974
  #      division   1.5020 1202
  #     outer_grid  974
        outer_grid  434
  ################################################################################
  #
  #  Definition of "minimal" basis
  #
  ################################################################################
  #     valence basis states
      valence      2  s   2.
      valence      2  p   2.
  #     ion occupancy
      ion_occ      2  s   1.
      ion_occ      2  p   1.
  ################################################################################
  #
  #  Suggested additional basis functions. For production calculations,
  #  uncomment them one after another (the most important basis functions are
  #  listed first).
  #
  #  Constructed for dimers: 1.0 A, 1.25 A, 1.5 A, 2.0 A, 3.0 A
  #
  ################################################################################
  #  "First tier" - improvements: -1214.57 meV to -155.61 meV
       hydro 2 p 1.7
       hydro 3 d 6
       hydro 2 s 4.9
  #  "Second tier" - improvements: -67.75 meV to -5.23 meV
       hydro 4 f 9.8
       hydro 3 p 5.2
       hydro 3 s 4.3
       hydro 5 g 14.4
       hydro 3 d 6.2
  #  "Third tier" - improvements: -2.43 meV to -0.60 meV
  #     hydro 2 p 5.6
  #     hydro 2 s 1.4
  #     hydro 3 d 4.9
  #     hydro 4 f 11.2
  #  "Fourth tier" - improvements: -0.39 meV to -0.18 meV
  #     hydro 2 p 2.1
  #     hydro 5 g 16.4
  #     hydro 4 d 13.2
  #     hydro 3 s 13.6
  #     hydro 4 f 17.6
  #  Further basis functions - improvements: -0.08 meV and below
  #     hydro 3 s 2
  #     hydro 3 p 6
  #     hydro 4 d 20
  ################################################################################
  #
  # For methods that use the localized form of the "resolution of identity" for
  # the two-electron Coulomb operator (RI_method LVL), particularly Hartree-Fock and
  # hybrid density functional calculations, the highest accuracy can be obtained by
  # uncommenting the line beginning with "for_aux"  below, thus adding an extra g radial
  # function to the construction of the product basis set for the expansion.
  # See Ref. New J. Phys. 17, 093020 (2015) for more information, particularly Figs. 1 and 6.
  #
  ################################################################################
  #
  # for_aux hydro 5 g 6.0
  
  -----------------------------------------------------------------------
  Completed first pass over input file control.in .
  -----------------------------------------------------------------------
  
  
  -----------------------------------------------------------------------
  Parsing geometry.in (first pass over file, find array dimensions only).
  The contents of geometry.in will be repeated verbatim below
  unless switched off by setting 'verbatim_writeout .false.' .
  in the first line of geometry.in .
  -----------------------------------------------------------------------
  
  #=======================================================
  # FHI-aims file: geometry.in
  # Created using the Atomic Simulation Environment (ASE)
  # Mon Jul 26 17:53:15 2021
  #=======================================================
  atom 19.1293450000000007 44.1436869999999999 60.8613720000000029 H
  atom 19.4078519999999983 45.1650059999999982 60.6073629999999994 C
  atom 19.3913480000000007 45.5941139999999976 59.2376629999999977 C
  atom 19.6600989999999989 46.0486199999999997 61.6559700000000035 C
  atom 18.7549729999999997 44.9634149999999977 58.0709269999999975 C
  atom 19.8133249999999990 46.8862009999999998 59.0467829999999978 C
  atom 19.5724690000000017 45.6693509999999989 62.6738700000000009 H
  atom 19.9177740000000014 47.4442349999999990 61.4261240000000015 C
  atom 18.3745849999999997 43.6113629999999972 58.0955889999999968 C
  atom 18.4158800000000014 45.7500250000000008 56.9069039999999973 C
  atom 19.4958710000000011 47.6527049999999974 57.8862129999999979 C
  atom 20.0703400000000016 47.7784570000000031 60.1050079999999980 C
  atom 19.8175060000000016 48.5812930000000023 62.3538899999999998 C
  atom 17.6643459999999983 43.0395710000000022 57.0533939999999973 C
  atom 18.6513379999999991 42.9993020000000001 58.9524660000000011 H
  atom 17.7002139999999990 45.1309669999999983 55.8659430000000015 C
  atom 18.7254129999999996 47.1869119999999995 56.8538819999999987 C
  atom 19.5620319999999985 49.0227470000000025 58.2403520000000015 C
  atom 19.9108790000000013 49.1082859999999997 59.6093120000000027 C
  atom 19.7993160000000010 48.3864039999999989 63.7450449999999975 C
  atom 19.6479229999999987 49.9269960000000026 61.8493160000000017 C
  atom 17.3847459999999998 41.9881409999999988 57.1052760000000035 H
  atom 17.3173320000000004 43.8053700000000035 55.9372139999999973 C
  atom 17.4420649999999995 45.7134399999999985 54.9831530000000015 H
  atom 18.1444890000000001 48.2149720000000030 56.0250089999999972 C
  atom 18.8476120000000016 50.0026590000000013 57.5813970000000026 C
  atom 19.5728140000000010 50.1747960000000006 60.4006990000000030 C
  atom 19.6201240000000006 49.4421549999999996 64.6232409999999931 C
  atom 19.9307160000000003 47.3794409999999999 64.1372389999999939 H
  atom 19.4864819999999987 50.9714590000000030 62.7743690000000001 C
  atom 16.7508739999999996 43.3630080000000007 55.1201349999999977 H
  atom 17.5576989999999995 47.9445279999999983 55.1483330000000009 H
  atom 18.2004540000000006 49.5553839999999965 56.3700240000000008 C
  atom 18.6472960000000008 51.2093819999999980 58.3451629999999994 C
  atom 18.9811809999999994 51.2845160000000035 59.6914340000000010 C
  atom 19.5981810000000003 49.2533760000000029 65.6945929999999976 H
  atom 19.4697589999999998 50.7407669999999982 64.1369159999999994 C
  atom 19.3679699999999997 51.9872780000000034 62.3991389999999981 H
  atom 17.6590370000000014 50.2649210000000011 55.7473140000000029 H
  atom 18.1362820000000013 52.0569649999999982 57.8891539999999978 H
  atom 18.7158900000000017 52.1935410000000033 60.2282650000000004 H
  atom 19.3404260000000008 51.5696420000000018 64.8317859999999939 H
  
  -----------------------------------------------------------------------
  Completed first pass over input file geometry.in .
  -----------------------------------------------------------------------
  

  Basic array size parameters:
  | Number of species                 :        2
  | Number of atoms                   :       42
  | Max. basis fn. angular momentum   :        4
  | Max. atomic/ionic basis occupied n:        2
  | Max. number of basis fn. types    :        2
  | Max. radial fns per species/type  :        8
  | Max. logarithmic grid size        :     1277
  | Max. radial integration grid size :       69
  | Max. angular integration grid size:      434
  | Max. angular grid division number :        8
  | Radial grid for Hartree potential :     1277
  | Number of spin channels           :        1

------------------------------------------------------------
          Reading file control.in.
------------------------------------------------------------
  XC: Using PBE gradient-corrected functionals.
  Scalar relativistic treatment of kinetic energy: ZORA.
  Threshold value for ZORA:   0.100000E-11
  Occupation type: Gaussian broadening, width =   0.100000E-03 eV.
  Since 'load_balancing .true.' is present in control.in, automatically turning on 'use_local_index .true.'.
  Using load balancing for integrations.
  Kohn-Sham electronic structure solved by the ELSI library.
  Using pulay charge density mixing.
  Pulay mixing - number of memorized iterations:    5
  Charge density mixing - mixing parameter:     0.4000
  Convergence accuracy of total energy:  0.1000E-05
  Convergence accuracy of sum of eigenvalues:  0.1000E-03
  Convergence accuracy of self-consistent charge density:  0.1000E-05
  Maximum number of s.-c. iterations  :   100
  * Ignoring prodbas_threshold
  Threshold for basis singularities:  0.1000E-04
  override_illconditioning: Explicitly overriding any built-in checks for an ill-conditioned overlap matrix.
  *** WARNING: If you use this flag, you should really know what you are doing.
  *** DO NOT keep this flag set by default in all your control.in files.
  Using 1D integrations for auxiliary 2-center integrals.
  Spin treatment: No spin polarisation.
  Charge =   0.000000E+00: Neutral system requested explicitly.
 
  Reading configuration options for species H                   .
  | Found nuclear charge :   1.0000
  | Found atomic mass :    1.00794000000000      amu
  | Found l_max for Hartree potential  :   6
  | Found cutoff potl. onset [A], width [A], scale factor :    4.00000    2.00000    1.00000
  | Threshold for basis-dependent cutoff potential is   0.100000E-03
  | Found data for basic radial integration grid :    24 points, outermost radius =    7.000 A
  | Found multiplier for basic radial grid :   2
  | Found angular grid specification: user-specified.
  | Specified grid contains     6 separate shells.
  | Check grid settings after all constraints further below.
  | Found free-atom valence shell :  1 s   1.000
  | No ionic wave fns used. Skipping ion_occ.
  | Found hydrogenic basis function :  2 s   2.100
  | Found hydrogenic basis function :  2 p   3.500
  | Found hydrogenic basis function :  1 s   0.850
  | Found hydrogenic basis function :  2 p   3.700
  | Found hydrogenic basis function :  2 s   1.200
  | Found hydrogenic basis function :  3 d   7.000
  Species H                   : Missing cutoff potential type.
  Defaulting to exp(1/x)/(1-x)^2 type cutoff potential.
  Species H : No 'logarithmic' tag. Using default grid for free atom:
  | Default logarithmic grid data [bohr] : 0.1000E-03 0.1000E+03 0.1012E+01
  Species H : On-site basis accuracy parameter (for Gram-Schmidt orthonormalisation) not specified.
  Using default value basis_acc =  0.1000000E-03.
  Species H                   : Using default innermost maximum threshold i_radial=  2 for radial functions.
  Species H                   : Default cutoff onset for free atom density etc. : 0.40000000E+01 AA.
  Species H                   : Basic radial grid will be enhanced according to radial_multiplier =   2, to contain    49 grid points.
 
  Reading configuration options for species C                   .
  | Found nuclear charge :   6.0000
  | Found atomic mass :    12.0107000000000      amu
  | Found l_max for Hartree potential  :   6
  | Found cutoff potl. onset [A], width [A], scale factor :    4.00000    2.00000    1.00000
  | Threshold for basis-dependent cutoff potential is   0.100000E-03
  | Found data for basic radial integration grid :    34 points, outermost radius =    7.000 A
  | Found multiplier for basic radial grid :   2
  | Found angular grid specification: user-specified.
  | Specified grid contains     6 separate shells.
  | Check grid settings after all constraints further below.
  | Found free-atom valence shell :  2 s   2.000
  | Found free-atom valence shell :  2 p   2.000
  | No ionic wave fns used. Skipping ion_occ.
  | No ionic wave fns used. Skipping ion_occ.
  | Found hydrogenic basis function :  2 p   1.700
  | Found hydrogenic basis function :  3 d   6.000
  | Found hydrogenic basis function :  2 s   4.900
  | Found hydrogenic basis function :  4 f   9.800
  | Found hydrogenic basis function :  3 p   5.200
  | Found hydrogenic basis function :  3 s   4.300
  | Found hydrogenic basis function :  5 g  14.400
  | Found hydrogenic basis function :  3 d   6.200
  Species C                   : Missing cutoff potential type.
  Defaulting to exp(1/x)/(1-x)^2 type cutoff potential.
  Species C : No 'logarithmic' tag. Using default grid for free atom:
  | Default logarithmic grid data [bohr] : 0.1000E-03 0.1000E+03 0.1012E+01
  Species C : On-site basis accuracy parameter (for Gram-Schmidt orthonormalisation) not specified.
  Using default value basis_acc =  0.1000000E-03.
  Species C                   : Using default innermost maximum threshold i_radial=  2 for radial functions.
  Species C                   : Default cutoff onset for free atom density etc. : 0.40000000E+01 AA.
  Species C                   : Basic radial grid will be enhanced according to radial_multiplier =   2, to contain    69 grid points.
 
  Finished reading input file 'control.in'. Consistency checks are next.
 
  MPI_IN_PLACE appears to work with this MPI implementation.
  | Keeping use_mpi_in_place .true. (see manual).
  Target number of points in a grid batch is not set. Defaulting to  100
  Method for grid partitioning is not set. Defaulting to parallel hash+maxmin partitioning.
  Batch size limit is not set. Defaulting to    200
  By default, will store active basis functions for each batch.
  If in need of memory, prune_basis_once .false. can be used to disable this option.
  communication_type for Hartree potential was not specified.
  Defaulting to calc_hartree .
  Pulay mixer: Number of initial linear mixing iterations not set.
  Defaulting to    0 iterations.
  Work space size for distributed Hartree potential not set.
  Defaulting to   0.200000E+03 MB.
  Algorithm-dependent basis array size parameters:
  | n_max_pulay                         :        5
  Presetting      1001 iterations before the initial mixing cycle
  is restarted anyway using the sc_init_iter criterion / keyword.
  Presetting a factor      1.000 between actual scf density residual
  and density convergence criterion sc_accuracy_rho below which sc_init_iter
  takes no effect.
  Calculation of forces was not defined in control.in. No forces will be calculated.
  Geometry relaxation not requested: no relaxation will be performed.
  No accuracy limit for integral partition fn. given. Defaulting to  0.1000E-14.
  No threshold value for u(r) in integrations given. Defaulting to  0.1000E-05.
  No accuracy for occupation numbers given. Defaulting to  0.1000E-12.
  No threshold value for occupation numbers given. Defaulting to  0.0000E+00.
  No accuracy for fermi level given. Defaulting to  0.1000E-19.
  Maximum # of iterations to find E_F not set. Defaulting to  200.
  Will not use alltoall communication since running on < 1024 CPUs.
  partition_type (choice of integration weights) for integrals was not specified.
  | Using a version of the partition function of Stratmann and coworkers ('stratmann_sparse').
  | At each grid point, the set of atoms used to build the partition table is smoothly restricted to
  | only those atoms whose free-atom density would be non-zero at that grid point.
  Partitioning for Hartree potential was not defined. Using partition_type for integrals.
  | Adjusted default value of keyword multip_moments_threshold to:       0.10000000E-11
  | This value may affect high angular momentum components of the Hartree potential in periodic systems.
  No q(lm)/r^(l+1) cutoff set for long-range Hartree potential.
  | Using default value of  0.100000E-09 .
  | Verify using the multipole_threshold keyword.
  Defaulting to new monopole extrapolation.
  Density update method: automatic selection selected.
 * Warning: use_local_index and/or load_balancing needs packed_matrix_format = index
 * Changing the default setting to packed_matrix_format = index
------------------------------------------------------------


------------------------------------------------------------
          Reading geometry description geometry.in.
------------------------------------------------------------
  Input structure read successfully.
  The structure contains       42 atoms,  and a total of        182.000 electrons.

  Input geometry:
  | No unit cell requested.
  | Atomic structure:
  |       Atom                x [A]            y [A]            z [A]
  |    1: Species H            19.12934500       44.14368700       60.86137200
  |    2: Species C            19.40785200       45.16500600       60.60736300
  |    3: Species C            19.39134800       45.59411400       59.23766300
  |    4: Species C            19.66009900       46.04862000       61.65597000
  |    5: Species C            18.75497300       44.96341500       58.07092700
  |    6: Species C            19.81332500       46.88620100       59.04678300
  |    7: Species H            19.57246900       45.66935100       62.67387000
  |    8: Species C            19.91777400       47.44423500       61.42612400
  |    9: Species C            18.37458500       43.61136300       58.09558900
  |   10: Species C            18.41588000       45.75002500       56.90690400
  |   11: Species C            19.49587100       47.65270500       57.88621300
  |   12: Species C            20.07034000       47.77845700       60.10500800
  |   13: Species C            19.81750600       48.58129300       62.35389000
  |   14: Species C            17.66434600       43.03957100       57.05339400
  |   15: Species H            18.65133800       42.99930200       58.95246600
  |   16: Species C            17.70021400       45.13096700       55.86594300
  |   17: Species C            18.72541300       47.18691200       56.85388200
  |   18: Species C            19.56203200       49.02274700       58.24035200
  |   19: Species C            19.91087900       49.10828600       59.60931200
  |   20: Species C            19.79931600       48.38640400       63.74504500
  |   21: Species C            19.64792300       49.92699600       61.84931600
  |   22: Species H            17.38474600       41.98814100       57.10527600
  |   23: Species C            17.31733200       43.80537000       55.93721400
  |   24: Species H            17.44206500       45.71344000       54.98315300
  |   25: Species C            18.14448900       48.21497200       56.02500900
  |   26: Species C            18.84761200       50.00265900       57.58139700
  |   27: Species C            19.57281400       50.17479600       60.40069900
  |   28: Species C            19.62012400       49.44215500       64.62324100
  |   29: Species H            19.93071600       47.37944100       64.13723900
  |   30: Species C            19.48648200       50.97145900       62.77436900
  |   31: Species H            16.75087400       43.36300800       55.12013500
  |   32: Species H            17.55769900       47.94452800       55.14833300
  |   33: Species C            18.20045400       49.55538400       56.37002400
  |   34: Species C            18.64729600       51.20938200       58.34516300
  |   35: Species C            18.98118100       51.28451600       59.69143400
  |   36: Species H            19.59818100       49.25337600       65.69459300
  |   37: Species C            19.46975900       50.74076700       64.13691600
  |   38: Species H            19.36797000       51.98727800       62.39913900
  |   39: Species H            17.65903700       50.26492100       55.74731400
  |   40: Species H            18.13628200       52.05696500       57.88915400
  |   41: Species H            18.71589000       52.19354100       60.22826500
  |   42: Species H            19.34042600       51.56964200       64.83178600
  |

  | The smallest distance between any two atoms is         1.08807817 AA.
  |
  | The first atom of this pair is atom number                     28 .
  | The second atom of this pair is atom number                    36 .

  Number of empty states per atom not set in control.in - providing a guess from actual geometry.
  | Total number of empty states used during s.c.f. cycle:      105
  If you use a very high smearing, use empty_states (per atom!) in control.in to increase this value.

  Structure-dependent array size parameters: 
  | Maximum number of distinct radial functions  :       18
  | Maximum number of basis functions            :     1302
  | Number of Kohn-Sham states (occupied + empty):      196
------------------------------------------------------------

------------------------------------------------------------
          Preparing all fixed parts of the calculation.
------------------------------------------------------------
  Determining machine precision:
    2.225073858507201E-308
  Setting up grids for atomic and cluster calculations.

  Creating wave function, potential, and density for free atoms.

  Species: H

  List of occupied orbitals and eigenvalues:
    n    l              occ      energy [Ha]    energy [eV]
    1    0           1.0000        -0.238386        -6.4868


  Species: C

  List of occupied orbitals and eigenvalues:
    n    l              occ      energy [Ha]    energy [eV]
    1    0           2.0000       -10.049212      -273.4530
    2    0           2.0000        -0.504761       -13.7352
    2    1           2.0000        -0.193631        -5.2690

  Creating fixed part of basis set: Ionic, confined, hydrogenic.
 
  H                    hydrogenic:
 
  List of hydrogenic basis orbitals: 
    n    l      effective z      eigenvalue [eV]  inner max. [A]     outer max. [A]     outer radius [A]   
    2    0         2.100000       -14.9965           0.193243           1.317208           5.373006
    2    1         3.500000       -41.6672           0.602369           0.602369           4.056063
    1    0         0.850000        -9.8292           0.624871           0.624871           5.373006
    2    1         3.700000       -46.5653           0.573622           0.573622           3.910002
    2    0         1.200000        -4.5995           0.334980           2.228188           5.505995
    3    2         7.000000       -74.0753           0.680699           0.680699           3.769201
 
 
  C                    hydrogenic:
 
  List of hydrogenic basis orbitals: 
    n    l      effective z      eigenvalue [eV]  inner max. [A]     outer max. [A]     outer radius [A]   
    2    1         1.700000        -9.8152           1.245706           1.245706           5.401630
    3    2         6.000000       -54.4226           0.792453           0.792453           4.178599
    2    0         4.900000       -81.6681           0.082559           0.562749           3.353238
    4    3         9.800000       -81.6681           0.863254           0.863254           4.028125
    3    1         5.200000       -40.8774           0.305389           1.215618           4.898362
    3    0         4.300000       -27.9508           0.091041           1.610311           5.401630
    5    4        14.400000      -112.8510           0.917666           0.917666           3.883070
    3    2         6.200000       -58.1113           0.763917           0.763917           4.077671
 

  Adding cutoff potential to free-atom effective potential.
  Creating atomic-like basis functions for current effective potential.

  Species H                   :

  List of atomic basis orbitals and eigenvalues:
    n    l      energy [Ha]    energy [eV]    outer radius [A]
    1    0        -0.238386        -6.4868       5.373006


  Species C                   :

  List of atomic basis orbitals and eigenvalues:
    n    l      energy [Ha]    energy [eV]    outer radius [A]
    1    0       -10.049212      -273.4530       1.934409
    2    0        -0.504761       -13.7352       5.271162
    2    1        -0.193631        -5.2690       5.401630

  Assembling full basis from fixed parts.
  | Species H :   atomic orbital   1 s accepted.
  | Species H :    hydro orbital   2 s accepted.
  | Species H :    hydro orbital   1 s accepted.
  | Species H :    hydro orbital   2 s accepted.
  | Species H :    hydro orbital   2 p accepted.
  | Species H :    hydro orbital   2 p accepted.
  | Species H :    hydro orbital   3 d accepted.
  | Species C :   atomic orbital   1 s accepted.
  | Species C :    hydro orbital   2 s accepted.
  | Species C :   atomic orbital   2 s accepted.
  | Species C :    hydro orbital   3 s accepted.
  | Species C :    hydro orbital   3 p accepted.
  | Species C :   atomic orbital   2 p accepted.
  | Species C :    hydro orbital   2 p accepted.
  | Species C :    hydro orbital   3 d accepted.
  | Species C :    hydro orbital   3 d accepted.
  | Species C :    hydro orbital   4 f accepted.
  | Species C :    hydro orbital   5 g accepted.
 
  Basis size parameters after reduction:
  | Total number of radial functions:       18
  | Total number of basis functions :     1302
 
  Per-task memory consumption for arrays in subroutine allocate_ext:
  |           4.443856MB.
  Testing on-site integration grid accuracy.
  |  Species  Function  <phi|h_atom|phi> (log., in eV)  <phi|h_atom|phi> (rad., in eV)
           1        1                 -6.4870767962                 -6.4871688290
           1        2                 13.5032046589                 13.5028982997
           1        3                 32.8195184817                 32.8119941656
           1        4                 33.8513856511                 33.7670005767 ***
           1        5                 28.8544614965                 28.8544615203
           1        6                 59.6326952547                 59.6327656460
           1        7                 60.2719308513                 60.2719305949
           2        8               -273.4529726040               -273.4529710464
           2        9                -10.7721037319                -10.7721022101
           2       10                 17.6044132601                 17.6044162063
           2       11                 53.7706460658                 53.7706913770
           2       12                 15.0973290362                 15.0973256030
           2       13                  3.8545134692                  3.8545724687
           2       14                 12.1156992592                 12.1182024431
           2       15                 29.4352039302                 29.4352041816
           2       16                 54.8741144708                 54.8740268729
           2       17                 59.3556032049                 59.3556031382
           2       18                 93.4551837154                 93.4551838009
 * Note: Onsite integrals marked "***" above are less accurate than
 * onsite_accuracy_threshold =    0.03000 eV. Usually, this is harmless.
 * When in doubt, tighten the "radial" and/or "radial_multiplier" flags to check.

  Preparing densities etc. for the partition functions (integrals / Hartree potential).

  Preparations completed.
  max(cpu_time)          :      0.186 s.
  Wall clock time (cpu1) :      0.177 s.
------------------------------------------------------------

------------------------------------------------------------
          Begin self-consistency loop: Initialization.

          Date     :  20210727, Time     :  231629.958
------------------------------------------------------------

  Initializing index lists of integration centers etc. from given atomic structure:
  | Number of centers in hartree potential         :        42
  | Number of centers in hartree multipole         :        42
  | Number of centers in electron density summation:        42
  | Number of centers in basis integrals           :        42
  | Number of centers in integrals                 :        42
  | Number of centers in hamiltonian               :        42
  * Using 56 tasks for Scalapack Eigenvalue solver.
  Detailed listing of tasks and assigned k-points:
  (for non-periodic systems, the "k-point" denotes an internal label only)
   Task     0 k-point     1 on d032
   Task     1 k-point     1 on d032
   Task     2 k-point     1 on d032
   Task     3 k-point     1 on d032
   Task     4 k-point     1 on d032
   Task     5 k-point     1 on d032
   Task     6 k-point     1 on d032
   Task     7 k-point     1 on d032
   Task     8 k-point     1 on d032
   Task     9 k-point     1 on d032
   Task    10 k-point     1 on d032
   Task    11 k-point     1 on d032
   Task    12 k-point     1 on d032
   Task    13 k-point     1 on d032
   Task    14 k-point     1 on d032
   Task    15 k-point     1 on d032
   Task    16 k-point     1 on d032
   Task    17 k-point     1 on d032
   Task    18 k-point     1 on d032
   Task    19 k-point     1 on d032
   Task    20 k-point     1 on d032
   Task    21 k-point     1 on d032
   Task    22 k-point     1 on d032
   Task    23 k-point     1 on d032
   Task    24 k-point     1 on d032
   Task    25 k-point     1 on d032
   Task    26 k-point     1 on d032
   Task    27 k-point     1 on d032
   Task    28 k-point     1 on d032
   Task    29 k-point     1 on d032
   Task    30 k-point     1 on d032
   Task    31 k-point     1 on d032
   Task    32 k-point     1 on d032
   Task    33 k-point     1 on d032
   Task    34 k-point     1 on d032
   Task    35 k-point     1 on d032
   Task    36 k-point     1 on d032
   Task    37 k-point     1 on d032
   Task    38 k-point     1 on d032
   Task    39 k-point     1 on d032
   Task    40 k-point     1 on d032
   Task    41 k-point     1 on d032
   Task    42 k-point     1 on d032
   Task    43 k-point     1 on d032
   Task    44 k-point     1 on d032
   Task    45 k-point     1 on d032
   Task    46 k-point     1 on d032
   Task    47 k-point     1 on d032
   Task    48 k-point     1 on d032
   Task    49 k-point     1 on d032
   Task    50 k-point     1 on d032
   Task    51 k-point     1 on d032
   Task    52 k-point     1 on d032
   Task    53 k-point     1 on d032
   Task    54 k-point     1 on d032
   Task    55 k-point     1 on d032
  Tasks:    56 split into      8 X      7 BLACS grid
  Calculating block size based on n_basis =         1302 max_nprow =            8 max_npcol =            7
  ScaLAPACK block size set to:           16
  Allocating        0.270 MB for ovlp
  Allocating        0.270 MB for ham
  Allocating        0.270 MB for eigenvec
  Required Scalapack workspace - INTEGER:            1 REAL:             1
  Partitioning the integration grid into batches with parallel hashing+maxmin method.
  | Number of batches:     6441
  | Maximal batch size:     199
  | Minimal batch size:      14
  | Average batch size:     109.996
  | Standard deviation of batch sizes:      38.210

  Integration load balanced across     56 MPI tasks.
  Work distribution over tasks is as follows:
  Task      0 has      12787 integration points.
  Task      1 has      12784 integration points.
  Task      2 has      12489 integration points.
  Task      3 has      12743 integration points.
  Task      4 has      12664 integration points.
  Task      5 has      12710 integration points.
  Task      6 has      12554 integration points.
  Task      7 has      12710 integration points.
  Task      8 has      12641 integration points.
  Task      9 has      12575 integration points.
  Task     10 has      12733 integration points.
  Task     11 has      12572 integration points.
  Task     12 has      12626 integration points.
  Task     13 has      12611 integration points.
  Task     14 has      12683 integration points.
  Task     15 has      12708 integration points.
  Task     16 has      12615 integration points.
  Task     17 has      12748 integration points.
  Task     18 has      12580 integration points.
  Task     19 has      12702 integration points.
  Task     20 has      12594 integration points.
  Task     21 has      12661 integration points.
  Task     22 has      12686 integration points.
  Task     23 has      12565 integration points.
  Task     24 has      12711 integration points.
  Task     25 has      12657 integration points.
  Task     26 has      12641 integration points.
  Task     27 has      12530 integration points.
  Task     28 has      12736 integration points.
  Task     29 has      12658 integration points.
  Task     30 has      12645 integration points.
  Task     31 has      12682 integration points.
  Task     32 has      12652 integration points.
  Task     33 has      12726 integration points.
  Task     34 has      12491 integration points.
  Task     35 has      12679 integration points.
  Task     36 has      12682 integration points.
  Task     37 has      12639 integration points.
  Task     38 has      12638 integration points.
  Task     39 has      12636 integration points.
  Task     40 has      12785 integration points.
  Task     41 has      12485 integration points.
  Task     42 has      12730 integration points.
  Task     43 has      12758 integration points.
  Task     44 has      12535 integration points.
  Task     45 has      12728 integration points.
  Task     46 has      12583 integration points.
  Task     47 has      12631 integration points.
  Task     48 has      12574 integration points.
  Task     49 has      12752 integration points.
  Task     50 has      12695 integration points.
  Task     51 has      12527 integration points.
  Task     52 has      12889 integration points.
  Task     53 has      12522 integration points.
  Task     54 has      12639 integration points.
  Task     55 has      12507 integration points.
  Initializing partition tables, free-atom densities, potentials, etc. across the integration grid (initialize_grid_storage).
  | initialize_grid_storage: Actual outermost partition radius vs. multipole_radius_free
  | (-- VB: in principle, multipole_radius_free should be larger, hence this output)
  | Species        1: Confinement radius =              6.000000000000000 AA, multipole_radius_free =              6.071692442739658 AA.
  | Species        1: outer_partition_radius set to              6.071692442739658 AA .
  | Species        2: Confinement radius =              6.000000000000000 AA, multipole_radius_free =              6.029870734432609 AA.
  | Species        2: outer_partition_radius set to              6.029870734432609 AA .
  | The sparse table of interatomic distances needs     20.8360 kbyte instead of    14.1120 kbyte of memory.
  | Using the partition_type stratmann_smoother will reduce your memory usage.
  | Net number of integration points:   708484
  | of which are non-zero points    :   566961
  Renormalizing the initial density to the exact electron count on the 3D integration grid.
  | Initial density: Formal number of electrons (from input files) :     182.0000000000
  | Integrated number of electrons on 3D grid     :     182.0000173675
  | Charge integration error                      :       0.0000173675
  | Normalization factor for density and gradient :       0.9999999046
  Obtaining max. number of non-zero basis functions in each batch (get_n_compute_maxes).
  | Maximal number of non-zero basis functions:      991
  Selecting the method for density update.
  Loop over occupied states selected for charge density update.
  Hamiltonian matrix size:
  | Size of matrix non-packed:                848253
  | Size of matrix packed:          786036
  Allocating        2.042 MB for KS_eigenvector
  use_local_index: Max. local matrix size =       744005
  Task:     0 matrix size:      82621
  Task:     1 matrix size:     127260
  Task:     2 matrix size:     155940
  Task:     3 matrix size:     200380
  Task:     4 matrix size:     230456
  Task:     5 matrix size:     475130
  Task:     6 matrix size:     506534
  Task:     7 matrix size:     185745
  Task:     8 matrix size:     290955
  Task:     9 matrix size:     364942
  Task:    10 matrix size:     242313
  Task:    11 matrix size:     527324
  Task:    12 matrix size:     349753
  Task:    13 matrix size:     526153
  Task:    14 matrix size:     264365
  Task:    15 matrix size:     590597
  Task:    16 matrix size:     624168
  Task:    17 matrix size:     165471
  Task:    18 matrix size:     249216
  Task:    19 matrix size:     436048
  Task:    20 matrix size:     209182
  Task:    21 matrix size:     415316
  Task:    22 matrix size:     616335
  Task:    23 matrix size:     614297
  Task:    24 matrix size:     277460
  Task:    25 matrix size:     353222
  Task:    26 matrix size:     472370
  Task:    27 matrix size:     454253
  Task:    28 matrix size:     237403
  Task:    29 matrix size:     744005
  Task:    30 matrix size:     718501
  Task:    31 matrix size:     342227
  Task:    32 matrix size:     565957
  Task:    33 matrix size:     242479
  Task:    34 matrix size:     291627
  Task:    35 matrix size:     393856
  Task:    36 matrix size:     670621
  Task:    37 matrix size:     625427
  Task:    38 matrix size:     355850
  Task:    39 matrix size:     422212
  Task:    40 matrix size:     223733
  Task:    41 matrix size:     208903
  Task:    42 matrix size:     577003
  Task:    43 matrix size:     382675
  Task:    44 matrix size:     367537
  Task:    45 matrix size:     382476
  Task:    46 matrix size:     226456
  Task:    47 matrix size:     156520
  Task:    48 matrix size:     108345
  Task:    49 matrix size:     557994
  Task:    50 matrix size:     453765
  Task:    51 matrix size:     357000
  Task:    52 matrix size:     292901
  Task:    53 matrix size:     190015
  Task:    54 matrix size:     125751
  Task:    55 matrix size:      97903
  Integrating Hamiltonian matrix: batch-based integration.
  Time summed over all CPUs for integration: real work      125.970 s, elapsed      258.365 s
  Time get_set_sparse_local_matrix_scalapack:     0.013633 s
  Start compute_balanced_batch_distribution
  Done load balancing, time needed:      0.007 s
  Integrating overlap matrix with loadbalancing
  Time summed over all CPUs for integration: real work       35.573 s, elapsed       43.638 s
  Time get_set_full_local_matrix_scalapack:     0.015020 s

  Updating Kohn-Sham eigenvalues and eigenvectors using ELSI and the ELPA eigensolver.
  Overlap matrix is not singular
  | Lowest and highest eigenvalues :  0.12E+02,  0.86E-04
  Finished singularity check of overlap matrix
  | Time :     0.076 s
  Finished Cholesky decomposition
  | Time :     0.016 s
  Finished transformation to standard eigenproblem
  | Time :     0.012 s
  Starting ELPA eigensolver
  Finished solving standard eigenproblem
  | Time :     0.074 s
  Finished back-transformation of eigenvectors
  | Time :     0.003 s

  Obtaining occupation numbers and chemical potential using ELSI.
  | Chemical potential (Fermi level):    -8.06893716 eV
  Writing Kohn-Sham eigenvalues.

  State    Occupation    Eigenvalue [Ha]    Eigenvalue [eV]
      1       2.00000         -10.176118         -276.90626
      2       2.00000         -10.175770         -276.89678
      3       2.00000         -10.175325         -276.88469
      4       2.00000         -10.175019         -276.87635
      5       2.00000         -10.174824         -276.87106
      6       2.00000         -10.171405         -276.77801
      7       2.00000         -10.171177         -276.77181
      8       2.00000         -10.170937         -276.76528
      9       2.00000         -10.170480         -276.75285
     10       2.00000         -10.169948         -276.73838
     11       2.00000         -10.169812         -276.73468
     12       2.00000         -10.169555         -276.72767
     13       2.00000         -10.169550         -276.72752
     14       2.00000         -10.164965         -276.60276
     15       2.00000         -10.164509         -276.59036
     16       2.00000         -10.164146         -276.58049
     17       2.00000         -10.163998         -276.57646
     18       2.00000         -10.163912         -276.57412
     19       2.00000         -10.163855         -276.57257
     20       2.00000         -10.163828         -276.57182
     21       2.00000         -10.163460         -276.56181
     22       2.00000         -10.163436         -276.56118
     23       2.00000         -10.163421         -276.56074
     24       2.00000         -10.163099         -276.55199
     25       2.00000         -10.158152         -276.41737
     26       2.00000         -10.157985         -276.41284
     27       2.00000         -10.157807         -276.40800
     28       2.00000         -10.157734         -276.40599
     29       2.00000          -1.053114          -28.65669
     30       2.00000          -0.999382          -27.19457
     31       2.00000          -0.993024          -27.02157
     32       2.00000          -0.983347          -26.75825
     33       2.00000          -0.963971          -26.23099
     34       2.00000          -0.936272          -25.47725
     35       2.00000          -0.925424          -25.18207
     36       2.00000          -0.914787          -24.89262
     37       2.00000          -0.888506          -24.17748
     38       2.00000          -0.886563          -24.12460
     39       2.00000          -0.860804          -23.42367
     40       2.00000          -0.858548          -23.36229
     41       2.00000          -0.857659          -23.33810
     42       2.00000          -0.854135          -23.24219
     43       2.00000          -0.798120          -21.71795
     44       2.00000          -0.775163          -21.09325
     45       2.00000          -0.774877          -21.08548
     46       2.00000          -0.755755          -20.56514
     47       2.00000          -0.750628          -20.42562
     48       2.00000          -0.738115          -20.08513
     49       2.00000          -0.722998          -19.67376
     50       2.00000          -0.718514          -19.55177
     51       2.00000          -0.689457          -18.76109
     52       2.00000          -0.673709          -18.33255
     53       2.00000          -0.670453          -18.24395
     54       2.00000          -0.654851          -17.81939
     55       2.00000          -0.652478          -17.75484
     56       2.00000          -0.638351          -17.37042
     57       2.00000          -0.624475          -16.99284
     58       2.00000          -0.617863          -16.81291
     59       2.00000          -0.611215          -16.63201
     60       2.00000          -0.597633          -16.26242
     61       2.00000          -0.595408          -16.20188
     62       2.00000          -0.592794          -16.13074
     63       2.00000          -0.581020          -15.81036
     64       2.00000          -0.574186          -15.62439
     65       2.00000          -0.570225          -15.51661
     66       2.00000          -0.566005          -15.40178
     67       2.00000          -0.563689          -15.33875
     68       2.00000          -0.559200          -15.21662
     69       2.00000          -0.551289          -15.00132
     70       2.00000          -0.546893          -14.88171
     71       2.00000          -0.541305          -14.72967
     72       2.00000          -0.519589          -14.13874
     73       2.00000          -0.518460          -14.10803
     74       2.00000          -0.509991          -13.87757
     75       2.00000          -0.509519          -13.86472
     76       2.00000          -0.503736          -13.70735
     77       2.00000          -0.498782          -13.57254
     78       2.00000          -0.496777          -13.51800
     79       2.00000          -0.489403          -13.31733
     80       2.00000          -0.485257          -13.20452
     81       2.00000          -0.484430          -13.18201
     82       2.00000          -0.468702          -12.75403
     83       2.00000          -0.441075          -12.00226
     84       2.00000          -0.437156          -11.89562
     85       2.00000          -0.424877          -11.56149
     86       2.00000          -0.401493          -10.92518
     87       2.00000          -0.400580          -10.90033
     88       2.00000          -0.377265          -10.26590
     89       2.00000          -0.376514          -10.24548
     90       2.00000          -0.369741          -10.06117
     91       2.00000          -0.363735           -9.89772
     92       0.00000          -0.259103           -7.05054
     93       0.00000          -0.248414           -6.75968
     94       0.00000          -0.236731           -6.44178
     95       0.00000          -0.208507           -5.67377
     96       0.00000          -0.203952           -5.54982
     97       0.00000          -0.191535           -5.21194
     98       0.00000          -0.188209           -5.12144
     99       0.00000          -0.178638           -4.86097
    100       0.00000          -0.146448           -3.98506
    101       0.00000          -0.117017           -3.18419
    102       0.00000          -0.088893           -2.41891
    103       0.00000          -0.075551           -2.05584
    104       0.00000          -0.067895           -1.84751
    105       0.00000          -0.066836           -1.81870
    106       0.00000          -0.060715           -1.65214
    107       0.00000          -0.050525           -1.37487
    108       0.00000          -0.048305           -1.31445
    109       0.00000          -0.037547           -1.02170
    110       0.00000          -0.032907           -0.89544
    111       0.00000          -0.031529           -0.85795
    112       0.00000          -0.029071           -0.79105
    113       0.00000          -0.025985           -0.70708
    114       0.00000          -0.023060           -0.62749
    115       0.00000          -0.014303           -0.38922
    116       0.00000          -0.009479           -0.25795
    117       0.00000          -0.009299           -0.25305
    118       0.00000          -0.004222           -0.11490
    119       0.00000          -0.002835           -0.07715
    120       0.00000           0.007559            0.20570
    121       0.00000           0.011943            0.32499
    122       0.00000           0.015588            0.42417
    123       0.00000           0.022499            0.61223
    124       0.00000           0.024406            0.66412
    125       0.00000           0.025202            0.68578
    126       0.00000           0.030154            0.82053
    127       0.00000           0.036344            0.98897
    128       0.00000           0.036785            1.00096
    129       0.00000           0.041223            1.12172
    130       0.00000           0.044259            1.20434
    131       0.00000           0.046734            1.27170
    132       0.00000           0.048570            1.32165
    133       0.00000           0.053560            1.45746
    134       0.00000           0.061525            1.67419
    135       0.00000           0.067017            1.82364
    136       0.00000           0.067276            1.83068
    137       0.00000           0.067671            1.84142
    138       0.00000           0.069440            1.88957
    139       0.00000           0.071783            1.95330
    140       0.00000           0.079041            2.15081
    141       0.00000           0.081615            2.22085
    142       0.00000           0.081829            2.22667
    143       0.00000           0.086145            2.34411
    144       0.00000           0.087525            2.38168
    145       0.00000           0.091275            2.48371
    146       0.00000           0.092596            2.51967
    147       0.00000           0.099231            2.70021
    148       0.00000           0.099501            2.70756
    149       0.00000           0.104215            2.83582
    150       0.00000           0.109710            2.98536
    151       0.00000           0.114715            3.12156
    152       0.00000           0.119838            3.26097
    153       0.00000           0.121107            3.29548
    154       0.00000           0.121250            3.29937
    155       0.00000           0.125738            3.42152
    156       0.00000           0.131198            3.57009
    157       0.00000           0.136168            3.70532
    158       0.00000           0.138190            3.76034
    159       0.00000           0.139196            3.78771
    160       0.00000           0.141728            3.85662
    161       0.00000           0.144802            3.94026
    162       0.00000           0.147787            4.02149
    163       0.00000           0.152564            4.15148
    164       0.00000           0.152802            4.15796
    165       0.00000           0.159075            4.32866
    166       0.00000           0.161091            4.38351
    167       0.00000           0.163094            4.43802
    168       0.00000           0.166049            4.51842
    169       0.00000           0.168494            4.58495
    170       0.00000           0.172176            4.68515
    171       0.00000           0.174585            4.75071
    172       0.00000           0.175945            4.78771
    173       0.00000           0.178788            4.86506
    174       0.00000           0.184813            5.02901
    175       0.00000           0.185550            5.04908
    176       0.00000           0.191731            5.21727
    177       0.00000           0.197625            5.37764
    178       0.00000           0.202188            5.50180
    179       0.00000           0.204090            5.55357
    180       0.00000           0.212471            5.78162
    181       0.00000           0.219301            5.96748
    182       0.00000           0.220432            5.99825
    183       0.00000           0.221120            6.01698
    184       0.00000           0.228408            6.21530
    185       0.00000           0.231849            6.30894
    186       0.00000           0.232273            6.32047
    187       0.00000           0.236887            6.44601
    188       0.00000           0.243117            6.61554
    189       0.00000           0.244078            6.64170
    190       0.00000           0.244976            6.66613
    191       0.00000           0.249582            6.79148
    192       0.00000           0.253539            6.89913
    193       0.00000           0.260103            7.07777
    194       0.00000           0.265477            7.22401
    195       0.00000           0.270228            7.35328
    196       0.00000           0.275019            7.48364

  Highest occupied state (VBM) at     -9.89772495 eV
  | Occupation number:      2.00000000

  Lowest unoccupied state (CBM) at    -7.05054300 eV
  | Occupation number:      0.00000000

  Overall HOMO-LUMO gap:      2.84718195 eV.
  Calculating total energy contributions from superposition of free atom densities.

  Total energy components:
  | Sum of eigenvalues            :        -650.86702849 Ha      -17710.99297060 eV
  | XC energy correction          :        -153.54082915 Ha       -4178.05853851 eV
  | XC potential correction       :         197.22005235 Ha        5366.63067563 eV
  | Free-atom electrostatic energy:        -469.04420030 Ha      -12763.34208177 eV
  | Hartree energy correction     :           0.00000000 Ha           0.00000000 eV
  | Entropy correction            :           0.00000000 Ha           0.00000000 eV
  | ---------------------------
  | Total energy                  :       -1076.23200559 Ha      -29285.76291525 eV
  | Total energy, T -> 0          :       -1076.23200559 Ha      -29285.76291525 eV  <-- do not rely on this value for anything but (periodic) metals
  | Electronic free energy        :       -1076.23200559 Ha      -29285.76291525 eV

  Derived energy quantities:
  | Kinetic energy                :        1067.12403341 Ha       29037.92238243 eV
  | Electrostatic energy          :       -1989.81520985 Ha      -54145.62675917 eV
  | Energy correction for multipole
  | error in Hartree potential    :           0.00000000 Ha           0.00000000 eV
  | Sum of eigenvalues per atom                           :        -421.69030882 eV
  | Total energy (T->0) per atom                          :        -697.28006941 eV  <-- do not rely on this value for anything but (periodic) metals
  | Electronic free energy per atom                       :        -697.28006941 eV
  Initialize hartree_potential_storage
  Max. number of atoms included in rho_multipole:           42

  End scf initialization - timings             :  max(cpu_time)    wall_clock(cpu1)
  | Time for scf. initialization               :        7.075 s           7.157 s
  | Boundary condition initialization          :        0.001 s           0.005 s
  | Integration                                :        5.444 s           5.451 s
  | Solution of K.-S. eqns.                    :        0.188 s           0.213 s
  | Grid partitioning                          :        0.756 s           0.761 s
  | Preloading free-atom quantities on grid    :        0.013 s           0.019 s
  | Free-atom superposition energy             :        0.055 s           0.055 s
  | Total energy evaluation                    :        0.001 s           0.005 s

  Partial memory accounting:
  | Current value for overall tracked memory usage on task 0  :           3.184 MB
  | Peak value for overall tracked memory usage on task 0     :          25.924 MB after allocating zora_vector2
  | Largest tracked array allocation on task 0 so far         :           7.857 MB  when allocating hamiltonian_shell
  Note:  These values currently only include a subset of arrays which are explicitly tracked.
  The "true" memory usage will be greater.
------------------------------------------------------------

------------------------------------------------------------
          Begin self-consistency iteration #    1

  Date     :  20210727, Time     :  231637.118
------------------------------------------------------------
  Evaluating new KS density.
  Integration grid: deviation in total charge (<rho> - N_e) =   5.684342E-14
  Pulay mixing of updated and previous charge densities.

  Evaluating partitioned Hartree potential by multipole expansion.
  | Analytical far-field extrapolation by fixed multipoles:
  | Hartree multipole sum: apparent total charge =   0.960113E-05
  Summing up the Hartree potential with load balancing.
  Time summed over all CPUs for potential: real work       19.708 s, elapsed       35.638 s
  | RMS charge density error from multipole expansion :   0.126719E-01

  Start compute_balanced_batch_distribution
  Done load balancing, time needed:      0.006 s
  Integrating Hamiltonian matrix: batch-based integration with load balancing
  Time summed over all CPUs for integration: real work      140.350 s, elapsed      155.340 s
  Time get_set_full_local_matrix_scalapack:     0.015619 s
  Start compute_balanced_batch_distribution
  Done load balancing, time needed:      0.006 s

  Updating Kohn-Sham eigenvalues and eigenvectors using ELSI and the ELPA eigensolver.
  Finished transformation to standard eigenproblem
  | Time :     0.013 s
  Starting ELPA eigensolver
  Finished solving standard eigenproblem
  | Time :     0.071 s
  Finished back-transformation of eigenvectors
  | Time :     0.003 s

  Obtaining occupation numbers and chemical potential using ELSI.
  | Chemical potential (Fermi level):    -5.67147261 eV
  Writing Kohn-Sham eigenvalues.

  State    Occupation    Eigenvalue [Ha]    Eigenvalue [eV]
      1       2.00000          -9.988854         -271.81056
      2       2.00000          -9.988594         -271.80347
      3       2.00000          -9.988587         -271.80329
      4       2.00000          -9.988305         -271.79562
      5       2.00000          -9.986467         -271.74560
      6       2.00000          -9.986007         -271.73308
      7       2.00000          -9.983098         -271.65391
      8       2.00000          -9.982826         -271.64651
      9       2.00000          -9.975397         -271.44437
     10       2.00000          -9.965496         -271.17495
     11       2.00000          -9.965224         -271.16753
     12       2.00000          -9.965033         -271.16235
     13       2.00000          -9.964967         -271.16056
     14       2.00000          -9.964522         -271.14844
     15       2.00000          -9.964340         -271.14349
     16       2.00000          -9.950853         -270.77650
     17       2.00000          -9.950742         -270.77345
     18       2.00000          -9.950725         -270.77300
     19       2.00000          -9.950663         -270.77133
     20       2.00000          -9.948059         -270.70046
     21       2.00000          -9.947873         -270.69540
     22       2.00000          -9.946585         -270.66034
     23       2.00000          -9.946144         -270.64836
     24       2.00000          -9.945408         -270.62831
     25       2.00000          -9.944937         -270.61550
     26       2.00000          -9.944639         -270.60740
     27       2.00000          -9.944529         -270.60440
     28       2.00000          -9.942026         -270.53631
     29       2.00000          -0.890264          -24.22532
     30       2.00000          -0.855881          -23.28970
     31       2.00000          -0.844005          -22.96655
     32       2.00000          -0.832056          -22.64139
     33       2.00000          -0.812236          -22.10208
     34       2.00000          -0.788577          -21.45828
     35       2.00000          -0.783006          -21.30667
     36       2.00000          -0.769801          -20.94735
     37       2.00000          -0.747619          -20.34374
     38       2.00000          -0.744044          -20.24647
     39       2.00000          -0.714652          -19.44667
     40       2.00000          -0.710832          -19.34274
     41       2.00000          -0.708643          -19.28315
     42       2.00000          -0.707835          -19.26117
     43       2.00000          -0.649677          -17.67861
     44       2.00000          -0.639661          -17.40606
     45       2.00000          -0.635001          -17.27926
     46       2.00000          -0.615014          -16.73538
     47       2.00000          -0.610688          -16.61766
     48       2.00000          -0.597627          -16.26226
     49       2.00000          -0.586860          -15.96929
     50       2.00000          -0.583674          -15.88257
     51       2.00000          -0.550166          -14.97077
     52       2.00000          -0.540705          -14.71334
     53       2.00000          -0.532508          -14.49029
     54       2.00000          -0.520789          -14.17138
     55       2.00000          -0.511741          -13.92519
     56       2.00000          -0.496408          -13.50796
     57       2.00000          -0.493414          -13.42647
     58       2.00000          -0.473030          -12.87180
     59       2.00000          -0.472515          -12.85779
     60       2.00000          -0.466264          -12.68770
     61       2.00000          -0.464906          -12.65075
     62       2.00000          -0.448479          -12.20373
     63       2.00000          -0.442642          -12.04491
     64       2.00000          -0.441909          -12.02495
     65       2.00000          -0.437696          -11.91031
     66       2.00000          -0.431859          -11.75148
     67       2.00000          -0.429736          -11.69371
     68       2.00000          -0.426530          -11.60648
     69       2.00000          -0.419711          -11.42091
     70       2.00000          -0.416682          -11.33851
     71       2.00000          -0.404688          -11.01211
     72       2.00000          -0.400230          -10.89081
     73       2.00000          -0.387088          -10.53321
     74       2.00000          -0.385035          -10.47735
     75       2.00000          -0.379748          -10.33346
     76       2.00000          -0.373720          -10.16945
     77       2.00000          -0.369865          -10.06455
     78       2.00000          -0.356890           -9.71148
     79       2.00000          -0.353647           -9.62322
     80       2.00000          -0.346838           -9.43795
     81       2.00000          -0.345559           -9.40314
     82       2.00000          -0.343049           -9.33485
     83       2.00000          -0.320357           -8.71736
     84       2.00000          -0.317315           -8.63458
     85       2.00000          -0.302896           -8.24223
     86       2.00000          -0.281916           -7.67133
     87       2.00000          -0.279508           -7.60580
     88       2.00000          -0.249655           -6.79345
     89       2.00000          -0.248365           -6.75836
     90       2.00000          -0.243630           -6.62950
     91       2.00000          -0.241145           -6.56188
     92       0.00000          -0.136896           -3.72513
     93       0.00000          -0.126982           -3.45534
     94       0.00000          -0.116514           -3.17049
     95       0.00000          -0.091775           -2.49733
     96       0.00000          -0.085632           -2.33017
     97       0.00000          -0.069192           -1.88280
     98       0.00000          -0.066531           -1.81039
     99       0.00000          -0.059128           -1.60894
    100       0.00000          -0.028598           -0.77819
    101       0.00000          -0.025673           -0.69859
    102       0.00000          -0.024838           -0.67587
    103       0.00000          -0.020024           -0.54489
    104       0.00000          -0.012578           -0.34227
    105       0.00000          -0.010482           -0.28524
    106       0.00000           0.003670            0.09985
    107       0.00000           0.006017            0.16372
    108       0.00000           0.006504            0.17699
    109       0.00000           0.021013            0.57181
    110       0.00000           0.023089            0.62827
    111       0.00000           0.036207            0.98525
    112       0.00000           0.039977            1.08782
    113       0.00000           0.048399            1.31700
    114       0.00000           0.051383            1.39819
    115       0.00000           0.057160            1.55540
    116       0.00000           0.063204            1.71987
    117       0.00000           0.067251            1.82998
    118       0.00000           0.074021            2.01422
    119       0.00000           0.082073            2.23333
    120       0.00000           0.084445            2.29785
    121       0.00000           0.089095            2.42440
    122       0.00000           0.092822            2.52580
    123       0.00000           0.095349            2.59459
    124       0.00000           0.096049            2.61363
    125       0.00000           0.097051            2.64089
    126       0.00000           0.106071            2.88633
    127       0.00000           0.106314            2.89295
    128       0.00000           0.110384            3.00371
    129       0.00000           0.114401            3.11301
    130       0.00000           0.115352            3.13889
    131       0.00000           0.120377            3.27562
    132       0.00000           0.121326            3.30144
    133       0.00000           0.122904            3.34438
    134       0.00000           0.128430            3.49475
    135       0.00000           0.132026            3.59261
    136       0.00000           0.134477            3.65929
    137       0.00000           0.134844            3.66929
    138       0.00000           0.139705            3.80156
    139       0.00000           0.140906            3.83424
    140       0.00000           0.145324            3.95446
    141       0.00000           0.150432            4.09345
    142       0.00000           0.154657            4.20842
    143       0.00000           0.155752            4.23822
    144       0.00000           0.158126            4.30283
    145       0.00000           0.160355            4.36348
    146       0.00000           0.163979            4.46209
    147       0.00000           0.167427            4.55593
    148       0.00000           0.171473            4.66603
    149       0.00000           0.177127            4.81988
    150       0.00000           0.178110            4.84663
    151       0.00000           0.186284            5.06906
    152       0.00000           0.186863            5.08480
    153       0.00000           0.190852            5.19335
    154       0.00000           0.192323            5.23338
    155       0.00000           0.194558            5.29418
    156       0.00000           0.201904            5.49408
    157       0.00000           0.202145            5.50065
    158       0.00000           0.208222            5.66600
    159       0.00000           0.208651            5.67769
    160       0.00000           0.209950            5.71304
    161       0.00000           0.218818            5.95435
    162       0.00000           0.220998            6.01367
    163       0.00000           0.224523            6.10957
    164       0.00000           0.226065            6.15155
    165       0.00000           0.227297            6.18506
    166       0.00000           0.228885            6.22829
    167       0.00000           0.234314            6.37602
    168       0.00000           0.234562            6.38276
    169       0.00000           0.241397            6.56875
    170       0.00000           0.241814            6.58011
    171       0.00000           0.247116            6.72438
    172       0.00000           0.247517            6.73529
    173       0.00000           0.254386            6.92221
    174       0.00000           0.257962            7.01949
    175       0.00000           0.261968            7.12852
    176       0.00000           0.264335            7.19292
    177       0.00000           0.269305            7.32815
    178       0.00000           0.275790            7.50463
    179       0.00000           0.278273            7.57220
    180       0.00000           0.290035            7.89224
    181       0.00000           0.292528            7.96009
    182       0.00000           0.295083            8.02961
    183       0.00000           0.296400            8.06544
    184       0.00000           0.301553            8.20568
    185       0.00000           0.302193            8.22309
    186       0.00000           0.310982            8.46224
    187       0.00000           0.313931            8.54251
    188       0.00000           0.315436            8.58344
    189       0.00000           0.318192            8.65846
    190       0.00000           0.320226            8.71380
    191       0.00000           0.330217            8.98567
    192       0.00000           0.332659            9.05210
    193       0.00000           0.335484            9.12898
    194       0.00000           0.343908            9.35822
    195       0.00000           0.351625            9.56821
    196       0.00000           0.357387            9.72500

  Highest occupied state (VBM) at     -6.56188218 eV
  | Occupation number:      2.00000000

  Lowest unoccupied state (CBM) at    -3.72513449 eV
  | Occupation number:      0.00000000

  Overall HOMO-LUMO gap:      2.83674768 eV.

  Total energy components:
  | Sum of eigenvalues            :        -622.29478448 Ha      -16933.50265273 eV
  | XC energy correction          :        -155.35171200 Ha       -4227.33516805 eV
  | XC potential correction       :         199.57199042 Ha        5430.63016685 eV
  | Free-atom electrostatic energy:        -469.04420030 Ha      -12763.34208177 eV
  | Hartree energy correction     :         -28.24242647 Ha        -768.51552595 eV
  | Entropy correction            :           0.00000000 Ha           0.00000000 eV
  | ---------------------------
  | Total energy                  :       -1075.36113283 Ha      -29262.06526166 eV
  | Total energy, T -> 0          :       -1075.36113283 Ha      -29262.06526166 eV  <-- do not rely on this value for anything but (periodic) metals
  | Electronic free energy        :       -1075.36113283 Ha      -29262.06526166 eV

  Derived energy quantities:
  | Kinetic energy                :        1074.99436248 Ha       29252.08493289 eV
  | Electrostatic energy          :       -1995.00378331 Ha      -54286.81502650 eV
  | Energy correction for multipole
  | error in Hartree potential    :          -0.06880237 Ha          -1.87220785 eV
  | Sum of eigenvalues per atom                           :        -403.17863459 eV
  | Total energy (T->0) per atom                          :        -696.71583956 eV  <-- do not rely on this value for anything but (periodic) metals
  | Electronic free energy per atom                       :        -696.71583956 eV

  Self-consistency convergence accuracy:
  | Change of charge density      :  0.1016E+01
  | Change of sum of eigenvalues  :  0.7775E+03 eV
  | Change of total energy        :  0.2370E+02 eV

  End self-consistency iteration #     1       :  max(cpu_time)    wall_clock(cpu1)
  | Time for this iteration                    :        4.671 s           4.681 s
  | Charge density update                      :        1.097 s           1.099 s
  | Density mixing                             :        0.002 s           0.004 s
  | Hartree multipole update                   :        0.009 s           0.009 s
  | Hartree multipole summation                :        0.646 s           0.650 s
  | Integration                                :        2.778 s           2.778 s
  | Solution of K.-S. eqns.                    :        0.126 s           0.126 s
  | Total energy evaluation                    :        0.000 s           0.000 s

  Partial memory accounting:
  | Current value for overall tracked memory usage on task 0  :           3.184 MB
  | Peak value for overall tracked memory usage on task 0     :          26.454 MB after allocating zora_vector2
  | Largest tracked array allocation on task 0 so far         :           7.857 MB  when allocating hamiltonian_shell
  Note:  These values currently only include a subset of arrays which are explicitly tracked.
  The "true" memory usage will be greater.
------------------------------------------------------------

------------------------------------------------------------
          Begin self-consistency iteration #    2

  Date     :  20210727, Time     :  231641.800
------------------------------------------------------------
  Evaluating new KS density.
  Integration grid: deviation in total charge (<rho> - N_e) =   2.842171E-14
  Pulay mixing of updated and previous charge densities.

  Evaluating partitioned Hartree potential by multipole expansion.
  | Analytical far-field extrapolation by fixed multipoles:
  | Hartree multipole sum: apparent total charge =   0.865504E-05
  Summing up the Hartree potential with load balancing.
  Time summed over all CPUs for potential: real work       19.934 s, elapsed       22.517 s
  | RMS charge density error from multipole expansion :   0.226229E-01

  Integrating Hamiltonian matrix: batch-based integration with load balancing
  Time summed over all CPUs for integration: real work      142.183 s, elapsed      147.416 s
  Time get_set_full_local_matrix_scalapack:     0.024015 s

[...]
     26       2.00000          -9.893618         -269.21904
     27       2.00000          -9.893241         -269.20877
     28       2.00000          -9.892489         -269.18831
     29       2.00000          -0.846103          -23.02363
     30       2.00000          -0.804860          -21.90135
     31       2.00000          -0.794511          -21.61975
     32       2.00000          -0.782544          -21.29410
     33       2.00000          -0.761952          -20.73377
     34       2.00000          -0.737479          -20.06783
     35       2.00000          -0.729990          -19.86404
     36       2.00000          -0.718613          -19.55445
     37       2.00000          -0.692485          -18.84347
     38       2.00000          -0.689672          -18.76694
     39       2.00000          -0.660196          -17.96485
     40       2.00000          -0.659046          -17.93356
     41       2.00000          -0.654807          -17.81821
     42       2.00000          -0.653392          -17.77971
     43       2.00000          -0.595083          -16.19303
     44       2.00000          -0.583701          -15.88332
     45       2.00000          -0.579311          -15.76386
     46       2.00000          -0.559687          -15.22986
     47       2.00000          -0.554619          -15.09195
     48       2.00000          -0.540768          -14.71503
     49       2.00000          -0.528194          -14.37288
     50       2.00000          -0.526737          -14.33326
     51       2.00000          -0.494475          -13.45535
     52       2.00000          -0.483615          -13.15985
     53       2.00000          -0.476059          -12.95423
     54       2.00000          -0.462645          -12.58921
     55       2.00000          -0.454135          -12.35763
     56       2.00000          -0.439748          -11.96614
     57       2.00000          -0.435520          -11.85109
     58       2.00000          -0.415074          -11.29474
     59       2.00000          -0.414647          -11.28313
     60       2.00000          -0.406261          -11.05493
     61       2.00000          -0.405946          -11.04636
     62       2.00000          -0.400247          -10.89129
     63       2.00000          -0.387810          -10.55285
     64       2.00000          -0.383562          -10.43726
     65       2.00000          -0.380584          -10.35621
     66       2.00000          -0.379989          -10.34002
     67       2.00000          -0.372957          -10.14868
     68       2.00000          -0.368658          -10.03170
     69       2.00000          -0.363936           -9.90319
     70       2.00000          -0.359882           -9.79288
     71       2.00000          -0.355715           -9.67949
     72       2.00000          -0.349407           -9.50784
     73       2.00000          -0.343495           -9.34696
     74       2.00000          -0.332043           -9.03536
     75       2.00000          -0.327288           -8.90595
     76       2.00000          -0.321722           -8.75449
     77       2.00000          -0.315304           -8.57987
     78       2.00000          -0.310938           -8.46107
     79       2.00000          -0.296511           -8.06848
     80       2.00000          -0.293015           -7.97333
     81       2.00000          -0.291165           -7.92299
     82       2.00000          -0.290445           -7.90342
     83       2.00000          -0.278678           -7.58322
     84       2.00000          -0.274753           -7.47641
     85       2.00000          -0.264326           -7.19268
     86       2.00000          -0.241092           -6.56045
     87       2.00000          -0.239294           -6.51151
     88       2.00000          -0.211220           -5.74760
     89       2.00000          -0.209868           -5.71079
     90       2.00000          -0.206268           -5.61283
     91       2.00000          -0.200345           -5.45167
     92       0.00000          -0.096953           -2.63823
     93       0.00000          -0.086910           -2.36494
     94       0.00000          -0.076492           -2.08145
     95       0.00000          -0.051894           -1.41210
     96       0.00000          -0.042755           -1.16341
     97       0.00000          -0.030266           -0.82359
     98       0.00000          -0.026464           -0.72012
     99       0.00000          -0.017977           -0.48919
    100       0.00000          -0.006847           -0.18632
    101       0.00000          -0.003526           -0.09594
    102       0.00000          -0.000805           -0.02192
    103       0.00000           0.010031            0.27297
    104       0.00000           0.010647            0.28973
    105       0.00000           0.019320            0.52574
    106       0.00000           0.026694            0.72638
    107       0.00000           0.027534            0.74923
    108       0.00000           0.042191            1.14808
    109       0.00000           0.044971            1.22371
    110       0.00000           0.049495            1.34682
    111       0.00000           0.063059            1.71591
    112       0.00000           0.071880            1.95595
    113       0.00000           0.075681            2.05938
    114       0.00000           0.075873            2.06460
    115       0.00000           0.085793            2.33453
    116       0.00000           0.087050            2.36876
    117       0.00000           0.091324            2.48506
    118       0.00000           0.098307            2.67506
    119       0.00000           0.104052            2.83141
    120       0.00000           0.104705            2.84916
    121       0.00000           0.111471            3.03327
    122       0.00000           0.116581            3.17234
    123       0.00000           0.125812            3.42351
    124       0.00000           0.127291            3.46376
    125       0.00000           0.131374            3.57486
    126       0.00000           0.132349            3.60140
    127       0.00000           0.136572            3.71633
    128       0.00000           0.138034            3.75609
    129       0.00000           0.142129            3.86754
    130       0.00000           0.143819            3.91352
    131       0.00000           0.148789            4.04876
    132       0.00000           0.151715            4.12839
    133       0.00000           0.152446            4.14827
    134       0.00000           0.153804            4.18521
    135       0.00000           0.164079            4.46483
    136       0.00000           0.166761            4.53779
    137       0.00000           0.169448            4.61091
    138       0.00000           0.172083            4.68260
    139       0.00000           0.174298            4.74290
    140       0.00000           0.178878            4.86752
    141       0.00000           0.180015            4.89845
    142       0.00000           0.180356            4.90773
    143       0.00000           0.181805            4.94715
    144       0.00000           0.186664            5.07939
    145       0.00000           0.190390            5.18078
    146       0.00000           0.193862            5.27525
    147       0.00000           0.198585            5.40378
    148       0.00000           0.200488            5.45556
    149       0.00000           0.205764            5.59912
    150       0.00000           0.210774            5.73545
    151       0.00000           0.213587            5.81200
    152       0.00000           0.217677            5.92329
    153       0.00000           0.222040            6.04201
    154       0.00000           0.226454            6.16212
    155       0.00000           0.227095            6.17957
    156       0.00000           0.228543            6.21898
    157       0.00000           0.234529            6.38187
    158       0.00000           0.237809            6.47111
    159       0.00000           0.238890            6.50053
    160       0.00000           0.239959            6.52961
    161       0.00000           0.246848            6.71707
    162       0.00000           0.251635            6.84735
    163       0.00000           0.254619            6.92853
    164       0.00000           0.256168            6.97070
    165       0.00000           0.258203            7.02605
    166       0.00000           0.258354            7.03016
    167       0.00000           0.261634            7.11943
    168       0.00000           0.264003            7.18388
    169       0.00000           0.272902            7.42604
    170       0.00000           0.274273            7.46335
    171       0.00000           0.276639            7.52772
    172       0.00000           0.286282            7.79013
    173       0.00000           0.286801            7.80426
    174       0.00000           0.289169            7.86869
    175       0.00000           0.296613            8.07124
    176       0.00000           0.298494            8.12245
    177       0.00000           0.300325            8.17226
    178       0.00000           0.305495            8.31293
    179       0.00000           0.314038            8.54541
    180       0.00000           0.316508            8.61263
    181       0.00000           0.320792            8.72920
    182       0.00000           0.321463            8.74744
    183       0.00000           0.324002            8.81654
    184       0.00000           0.325636            8.86102
    185       0.00000           0.337899            9.19470
    186       0.00000           0.339738            9.24473
    187       0.00000           0.341753            9.29959
    188       0.00000           0.343473            9.34638
    189       0.00000           0.349767            9.51765
    190       0.00000           0.353124            9.60898
    191       0.00000           0.362207            9.85615
    192       0.00000           0.363337            9.88691
    193       0.00000           0.372105           10.12548
    194       0.00000           0.373231           10.15613
    195       0.00000           0.384311           10.45764
    196       0.00000           0.389456           10.59763

  Highest occupied state (VBM) at     -5.45166606 eV
  | Occupation number:      2.00000000

  Lowest unoccupied state (CBM) at    -2.63823225 eV
  | Occupation number:      0.00000000

  Overall HOMO-LUMO gap:      2.81343382 eV.

  Total energy components:
  | Sum of eigenvalues            :        -612.51871653 Ha      -16667.48230905 eV
  | XC energy correction          :        -156.17431403 Ha       -4249.71930806 eV
  | XC potential correction       :         200.62555205 Ha        5459.29903745 eV
  | Free-atom electrostatic energy:        -469.04420030 Ha      -12763.34208177 eV
  | Hartree energy correction     :         -37.88609542 Ha       -1030.93310981 eV
  | Entropy correction            :           0.00000000 Ha           0.00000000 eV
  | ---------------------------
  | Total energy                  :       -1074.99777423 Ha      -29252.17777124 eV
  | Total energy, T -> 0          :       -1074.99777423 Ha      -29252.17777124 eV  <-- do not rely on this value for anything but (periodic) metals
  | Electronic free energy        :       -1074.99777423 Ha      -29252.17777124 eV

  Derived energy quantities:
  | Kinetic energy                :        1071.90929624 Ha       29168.13600907 eV
  | Electrostatic energy          :       -1990.73275644 Ha      -54170.59447225 eV
  | Energy correction for multipole
  | error in Hartree potential    :          -0.13151318 Ha          -3.57865577 eV
  | Sum of eigenvalues per atom                           :        -396.84481688 eV
  | Total energy (T->0) per atom                          :        -696.48042312 eV  <-- do not rely on this value for anything but (periodic) metals
  | Electronic free energy per atom                       :        -696.48042312 eV
  End evaluation of scaled ZORA corrections.
  | Time for scaled ZORA corrections           :        5.062 s           5.076 s
------------------------------------------------------------

  Energy and forces in a compact form:
  | Total energy uncorrected      :         -0.292521777712376E+05 eV
  | Total energy corrected        :         -0.292521777712376E+05 eV  <-- do not rely on this value for anything but (periodic) metals
  | Electronic free energy        :         -0.292521777712376E+05 eV

  ------------------------------------ 
  Start decomposition of the XC Energy 
  ------------------------------------ 
  X and C from original XC functional choice 
  Hartree-Fock Energy :          0.000000000 Ha              0.000000000 eV
  X Energy            :       -150.037775930 Ha          -4082.735610352 eV
  C Energy            :         -6.136538099 Ha           -166.983697705 eV
  Total XC Energy     :       -156.174314029 Ha          -4249.719308057 eV
  ------------------------------------ 
  LDA X and C from self-consistent density 
  X Energy LDA        :       -135.912914541 Ha          -3698.378576096 eV
  C Energy LDA        :        -11.798297525 Ha           -321.048010387 eV
  ------------------------------------ 
  End decomposition of the XC Energy 
  ------------------------------------ 

------------------------------------------------------------

------------------------------------------------------------------------------
  Final output of selected total energy values:

  The following output summarizes some interesting total energy values
  at the end of a run (AFTER all relaxation, molecular dynamics, etc.).

  | Total energy of the DFT / Hartree-Fock s.c.f. calculation      :         -29252.177771238 eV
  | Final zero-broadening corrected energy (caution - metals only) :         -29252.177771238 eV
  | For reference only, the value of 1 Hartree used in FHI-aims is :             27.211384500 eV

  Before relying on these values, please be sure to understand exactly which
  total energy value is referred to by a given number. Different objects may
  all carry the same name 'total energy'. Definitions:

  Total energy of the DFT / Hartree-Fock s.c.f. calculation:
  | Note that this energy does not include ANY quantities calculated after the
  | s.c.f. cycle, in particular not ANY RPA, MP2, etc. many-body perturbation terms.
  | Scalar relativistic effects have been included in the 'scaled ZORA' approximation.

  Final zero-broadening corrected energy:
  | For metallic systems only, a broadening of the occupation numbers at the Fermi
  | level can be extrapolated back to zero broadening by an electron-gas inspired
  | formula. For all systems that are not real metals, this value can be
  | meaningless and should be avoided.

------------------------------------------------------------------------------
  Methods described in the following list of references were used in this FHI-aims run.
  If you publish the results, please make sure to cite these reference if they apply.
  FHI-aims is an academic code, and for our developers (often, Ph.D. students
  and postdocs), scientific credit in the community is essential.
  Thank you for helping us!

  For any use of FHI-aims, please cite:

    Volker Blum, Ralf Gehrke, Felix Hanke, Paula Havu, Ville Havu,
    Xinguo Ren, Karsten Reuter, and Matthias Scheffler
    'Ab initio molecular simulations with numeric atom-centered orbitals'
    Computer Physics Communications 180, 2175-2196 (2009)
    http://dx.doi.org/10.1016/j.cpc.2009.06.022


  The scalable eigensolver library ELPA was used in your run.
  ELPA is essential especially for large systems on hundreds or thousands of CPUs.
  For ELPA, please cite:

    Andreas Marek, Volker Blum, Rainer Johanni, Ville Havu, Bruno Lang,
    Thomas Auckenthaler, Alexander Heinecke, Hans-Joachim Bungartz, and Hermann Lederer,
    'The ELPA Library - Scalable Parallel Eigenvalue Solutions
    for Electronic Structure Theory and Computational Science'
    The Journal of Physics: Condensed Matter 26, 213201 (2014).
    http://dx.doi.org/10.1088/0953-8984/26/21/213201


  The ELSI infrastructure was used in your run to solve the Kohn-Sham electronic structure.
  Please check out http://elsi-interchange.org to learn more.
  If scalability is important for your project, please acknowledge ELSI by citing:

    V. W-z. Yu, F. Corsetti, A. Garcia, W. P. Huhn, M. Jacquelin, W. Jia,
    B. Lange, L. Lin, J. Lu, W. Mi, A. Seifitokaldani, A. Vazquez-Mayagoitia,
    C. Yang, H. Yang, and V. Blum
    'ELSI: A unified software interface for Kohn-Sham electronic structure solvers'
    Computer Physics Communications 222, 267-285 (2018).
    http://dx.doi.org/10.1016/j.cpc.2017.09.007


  For the real-space grid partitioning and parallelization used in this calculation, please cite:

    Ville Havu, Volker Blum, Paula Havu, and Matthias Scheffler,
    'Efficient O(N) integration for all-electron electronic structure calculation'
    'using numerically tabulated basis functions'
    Journal of Computational Physics 228, 8367-8379 (2009).
    http://dx.doi.org/10.1016/j.jcp.2009.08.008

  Of course, there are many other important community references, e.g., those cited in the
  above references. Our list is limited to references that describe implementations in the
  FHI-aims code. The reason is purely practical (length of this list) - please credit others as well.

------------------------------------------------------------
          Leaving FHI-aims.
          Date     :  20210727, Time     :  231751.208

          Computational steps:
          | Number of self-consistency cycles          :           16
          | Number of SCF (re)initializations          :            1

          Detailed time accounting                     :  max(cpu_time)    wall_clock(cpu1)
          | Total time                                 :       81.447 s          81.694 s
          | Preparation time                           :        0.186 s           0.177 s
          | Boundary condition initalization           :        0.001 s           0.005 s
          | Grid partitioning                          :        0.756 s           0.761 s
          | Preloading free-atom quantities on grid    :        0.013 s           0.019 s
          | Free-atom superposition energy             :        0.055 s           0.055 s
          | Total time for integrations                :       47.777 s          47.788 s
          | Total time for solution of K.-S. equations :        2.205 s           2.233 s
          | Total time for density update              :       17.533 s          17.497 s
          | Total time for mixing                      :        0.106 s           0.109 s
          | Total time for Hartree multipole update    :        0.130 s           0.135 s
          | Total time for Hartree multipole sum       :        6.707 s           6.713 s
          | Total time for total energy evaluation     :        0.006 s           0.030 s
          | Total time for scaled ZORA corrections     :        5.062 s           5.076 s

          Partial memory accounting:
          | Residual value for overall tracked memory usage across tasks :     0.000000 MB (should be 0.000000 MB)
          | Peak values for overall tracked memory usage (after allocating zora_vector2):
          |   Minimum:       26.476 MB (on task  1)
          |   Maximum:       34.010 MB (on task 30)
          |   Average:       29.910 MB
          | Largest tracked array allocation (hamiltonian_shell):
          |   Minimum:        7.857 MB (on task  1)
          |   Maximum:        7.857 MB (on task  1)
          |   Average:        7.857 MB
          Note:  These values currently only include a subset of arrays which are explicitly tracked.
          The "true" memory usage will be greater.

          Have a nice day.
------------------------------------------------------------
