  MPI-parallelism will be employed.
------------------------------------------------------------
          Invoking FHI-aims ...
          Version 180607
          Git rev. (modified): 6724847 Fix JSON memory corruption in scf_solver
          Compiled on 2018/06/27 at 16:00:31 on host coe.psc.edu.

          When using FHI-aims, please cite the following reference:

          Volker Blum, Ralf Gehrke, Felix Hanke, Paula Havu,
          Ville Havu, Xinguo Ren, Karsten Reuter, and Matthias Scheffler,
          'Ab Initio Molecular Simulations with Numeric Atom-Centered Orbitals',
          Computer Physics Communications 180, 2175-2196 (2009)

          For any questions about FHI-aims, please visit the aimsclub website
          with its forums and wiki. Contributions to both the forums and the
          wiki are warmly encouraged - they are for you, and everyone is welcome there.

------------------------------------------------------------



  Date     :  20210620, Time     :  173753.783
  Time zero on CPU 1             :   0.216813000000000E+00  s.
  Internal wall clock time zero  :           393442673.783  s.

  FHI-aims created a unique identifier for this run for later identification
  aims_uuid : 8549191F-409E-43AB-AE9E-76C0ABD48D86

  Using       56 parallel tasks.
  Task        0 on host d024 reporting.
  Task        1 on host d024 reporting.
  Task        2 on host d024 reporting.
  Task        3 on host d024 reporting.
  Task        4 on host d024 reporting.
  Task        5 on host d024 reporting.
  Task        6 on host d024 reporting.
  Task        7 on host d024 reporting.
  Task        8 on host d024 reporting.
  Task        9 on host d024 reporting.
  Task       10 on host d024 reporting.
  Task       11 on host d024 reporting.
  Task       12 on host d024 reporting.
  Task       13 on host d024 reporting.
  Task       14 on host d024 reporting.
  Task       15 on host d024 reporting.
  Task       16 on host d024 reporting.
  Task       17 on host d024 reporting.
  Task       18 on host d024 reporting.
  Task       19 on host d024 reporting.
  Task       20 on host d024 reporting.
  Task       21 on host d024 reporting.
  Task       22 on host d024 reporting.
  Task       23 on host d024 reporting.
  Task       24 on host d024 reporting.
  Task       25 on host d024 reporting.
  Task       26 on host d024 reporting.
  Task       27 on host d024 reporting.
  Task       28 on host d024 reporting.
  Task       29 on host d024 reporting.
  Task       30 on host d024 reporting.
  Task       31 on host d024 reporting.
  Task       32 on host d024 reporting.
  Task       33 on host d024 reporting.
  Task       34 on host d024 reporting.
  Task       35 on host d024 reporting.
  Task       36 on host d024 reporting.
  Task       37 on host d024 reporting.
  Task       38 on host d024 reporting.
  Task       39 on host d024 reporting.
  Task       40 on host d024 reporting.
  Task       41 on host d024 reporting.
  Task       42 on host d024 reporting.
  Task       43 on host d024 reporting.
  Task       44 on host d024 reporting.
  Task       45 on host d024 reporting.
  Task       46 on host d024 reporting.
  Task       47 on host d024 reporting.
  Task       48 on host d024 reporting.
  Task       49 on host d024 reporting.
  Task       50 on host d024 reporting.
  Task       51 on host d024 reporting.
  Task       52 on host d024 reporting.
  Task       53 on host d024 reporting.
  Task       54 on host d024 reporting.
  Task       55 on host d024 reporting.

  Performing system and environment tests:
  *** Environment variable OMP_NUM_THREADS is not set
  *** For performance reasons you might want to set it to 1
  | Stacksize not measured: no C compiler
  | Checking for scalapack...
  | Testing pdtran()...
  | All pdtran() tests passed.

  Obtaining array dimensions for all initial allocations:
  
  -----------------------------------------------------------------------
  Parsing control.in (first pass over file, find array dimensions only).
  The contents of control.in will be repeated verbatim below
  unless switched off by setting 'verbatim_writeout .false.' .
  in the first line of control.in .
  -----------------------------------------------------------------------
  
  #===============================================================================
  # FHI-aims file: ./Runs/es/control.in
  # Created using the Atomic Simulation Environment (ASE)
  # Mon Jan 13 16:04:38 2020
  #===============================================================================
  xc                                 pbe
  relativistic                       zora scalar 1e-12
  occupation_type                    gaussian 0.0001
  load_balancing                     .true.
  KS_method                          scalapack_fast
  mixer                              pulay
  n_max_pulay                        5
  charge_mix_param                   0.4
  sc_accuracy_etot                   1e-6
  sc_accuracy_eev                    1e-4
  sc_accuracy_rho                    1e-6
  sc_iter_limit                      100
  prodbas_threshold                  1e-4
  basis_threshold                    1e-5
  override_illconditioning           .true.
  use_logsbt                         .true.
  spin                               none
  charge                             0
  #===============================================================================
  
  ################################################################################
  #
  #  FHI-aims code project
  # Volker Blum, Fritz Haber Institute Berlin, 2009
  #
  #  Suggested "tight" defaults for H atom (to be pasted into control.in file)
  #
  ################################################################################
    species        H
  #     global species definitions
      nucleus             1
      mass                1.00794
  #
      l_hartree           6
  #
      cut_pot             4.0  2.0  1.0
      basis_dep_cutoff    1e-4
  #
      radial_base         24 7.0
      radial_multiplier   2
      angular_grids       specified
        division   0.1930   50
        division   0.3175  110
        division   0.4293  194
        division   0.5066  302
        division   0.5626  434
  #      division   0.5922  590
  #      division   0.6227  974
  #      division   0.6868 1202
  #      outer_grid  770
        outer_grid  434
  ################################################################################
  #
  #  Definition of "minimal" basis
  #
  ################################################################################
  #     valence basis states
      valence      1  s   1.
  #     ion occupancy
      ion_occ      1  s   0.5
  ################################################################################
  #
  #  Suggested additional basis functions. For production calculations,
  #  uncomment them one after another (the most important basis functions are
  #  listed first).
  #
  #  Basis constructed for dimers: 0.5 A, 0.7 A, 1.0 A, 1.5 A, 2.5 A
  #
  ################################################################################
  #  "First tier" - improvements: -1014.90 meV to -62.69 meV
       hydro 2 s 2.1
       hydro 2 p 3.5
  #  "Second tier" - improvements: -12.89 meV to -1.83 meV
       hydro 1 s 0.85
       hydro 2 p 3.7
       hydro 2 s 1.2
       hydro 3 d 7
  #  "Third tier" - improvements: -0.25 meV to -0.12 meV
  #     hydro 4 f 11.2
  #     hydro 3 p 4.8
  #     hydro 4 d 9
  #     hydro 3 s 3.2
  ################################################################################
  #
  # For methods that use the localized form of the "resolution of identity" for
  # the two-electron Coulomb operator (RI_method LVL), particularly Hartree-Fock and
  # hybrid density functional calculations, the highest accuracy can be obtained by
  # uncommenting the line beginning with "for_aux"  below, thus adding an extra g radial
  # function to the construction of the product basis set for the expansion.
  # See Ref. New J. Phys. 17, 093020 (2015) for more information, particularly Figs. 1 and 6.
  #
  ################################################################################
  #
  # for_aux hydro 5 g 6.0
  ################################################################################
  #
  #  FHI-aims code project
  # Volker Blum, Fritz Haber Institute Berlin, 2009
  #
  #  Suggested "tight" defaults for C atom (to be pasted into control.in file)
  #
  ################################################################################
    species        C
  #     global species definitions
      nucleus             6
      mass                12.0107
  #
      l_hartree           6
  #
      cut_pot             4.0  2.0  1.0
      basis_dep_cutoff    1e-4
  #
      radial_base         34 7.0
      radial_multiplier   2
      angular_grids specified
        division   0.2187   50
        division   0.4416  110
        division   0.6335  194
        division   0.7727  302
        division   0.8772  434
  #      division   0.9334  590
  #      division   0.9924  770
  #      division   1.0230  974
  #      division   1.5020 1202
  #     outer_grid  974
        outer_grid  434
  ################################################################################
  #
  #  Definition of "minimal" basis
  #
  ################################################################################
  #     valence basis states
      valence      2  s   2.
      valence      2  p   2.
  #     ion occupancy
      ion_occ      2  s   1.
      ion_occ      2  p   1.
  ################################################################################
  #
  #  Suggested additional basis functions. For production calculations,
  #  uncomment them one after another (the most important basis functions are
  #  listed first).
  #
  #  Constructed for dimers: 1.0 A, 1.25 A, 1.5 A, 2.0 A, 3.0 A
  #
  ################################################################################
  #  "First tier" - improvements: -1214.57 meV to -155.61 meV
       hydro 2 p 1.7
       hydro 3 d 6
       hydro 2 s 4.9
  #  "Second tier" - improvements: -67.75 meV to -5.23 meV
       hydro 4 f 9.8
       hydro 3 p 5.2
       hydro 3 s 4.3
       hydro 5 g 14.4
       hydro 3 d 6.2
  #  "Third tier" - improvements: -2.43 meV to -0.60 meV
  #     hydro 2 p 5.6
  #     hydro 2 s 1.4
  #     hydro 3 d 4.9
  #     hydro 4 f 11.2
  #  "Fourth tier" - improvements: -0.39 meV to -0.18 meV
  #     hydro 2 p 2.1
  #     hydro 5 g 16.4
  #     hydro 4 d 13.2
  #     hydro 3 s 13.6
  #     hydro 4 f 17.6
  #  Further basis functions - improvements: -0.08 meV and below
  #     hydro 3 s 2
  #     hydro 3 p 6
  #     hydro 4 d 20
  ################################################################################
  #
  # For methods that use the localized form of the "resolution of identity" for
  # the two-electron Coulomb operator (RI_method LVL), particularly Hartree-Fock and
  # hybrid density functional calculations, the highest accuracy can be obtained by
  # uncommenting the line beginning with "for_aux"  below, thus adding an extra g radial
  # function to the construction of the product basis set for the expansion.
  # See Ref. New J. Phys. 17, 093020 (2015) for more information, particularly Figs. 1 and 6.
  #
  ################################################################################
  #
  # for_aux hydro 5 g 6.0
  
  -----------------------------------------------------------------------
  Completed first pass over input file control.in .
  -----------------------------------------------------------------------
  
  
  -----------------------------------------------------------------------
  Parsing geometry.in (first pass over file, find array dimensions only).
  The contents of geometry.in will be repeated verbatim below
  unless switched off by setting 'verbatim_writeout .false.' .
  in the first line of geometry.in .
  -----------------------------------------------------------------------
  
  #=======================================================
  # FHI-aims file: geometry.in
  # Created using the Atomic Simulation Environment (ASE)
  # Sun Jun 20 15:47:02 2021
  #=======================================================
  atom 8.8494229999999998 21.7656659999999995 34.5371019999999973 H
  atom 8.5652690000000007 21.1765149999999984 35.4061209999999988 C
  atom 8.1331199999999999 21.8713349999999984 36.5528720000000007 C
  atom 8.6546020000000006 19.7826680000000010 35.3460359999999980 C
  atom 7.7666849999999998 21.1504399999999997 37.6735040000000012 C
  atom 8.1094240000000006 22.9573369999999990 36.5387419999999992 H
  atom 8.2681339999999999 19.0304919999999989 36.4992090000000005 C
  atom 9.1219429999999999 19.0368689999999994 34.1768780000000021 C
  atom 7.2424450000000000 21.4737040000000015 39.0075029999999998 C
  atom 7.8489120000000003 19.7431379999999983 37.6181290000000033 C
  atom 8.2689780000000006 17.6005369999999992 36.5886939999999967 C
  atom 9.1040910000000004 17.6096550000000001 34.2549459999999968 C
  atom 9.5858790000000003 19.6232110000000013 32.9981590000000011 C
  atom 7.0286850000000003 20.2489050000000006 39.7101109999999977 C
  atom 6.9188650000000003 22.6884610000000002 39.6000739999999993 C
  atom 7.4271789999999998 19.1404059999999987 38.8266769999999966 C
  atom 7.8829339999999997 17.0178270000000005 37.7983839999999987 C
  atom 8.6854540000000000 16.8521919999999987 35.4028380000000027 C
  atom 9.5267149999999994 16.8977940000000011 33.1425910000000030 C
  atom 10.0347760000000008 18.8705700000000007 31.8858040000000003 C
  atom 9.6049650000000000 20.7081510000000009 32.9082450000000009 H
  atom 6.4851109999999998 20.2641840000000002 40.9860219999999984 C
  atom 6.3795760000000001 22.6838920000000002 40.8852619999999973 C
  atom 7.0795820000000003 23.6288160000000005 39.0754370000000009 H
  atom 7.4560829999999996 17.7651670000000017 38.9188740000000024 C
  atom 7.8809889999999996 15.9337000000000000 37.8888680000000022 H
  atom 8.7228929999999991 15.4613630000000004 35.3241999999999976 C
  atom 9.5521429999999992 15.4857759999999995 33.0665210000000016 C
  atom 10.0026779999999995 17.4942439999999984 31.9514539999999982 C
  atom 10.3965239999999994 19.3956200000000010 31.0045110000000008 H
  atom 6.3024129999999996 19.3320180000000015 41.5219340000000017 H
  atom 6.1623520000000003 21.4908380000000001 41.5660340000000019 C
  atom 6.1308249999999997 23.6326840000000011 41.3612320000000011 H
  atom 7.1323670000000003 17.2385939999999991 39.8145809999999969 H
  atom 8.4007640000000006 14.8691569999999995 36.1772339999999986 H
  atom 9.1454839999999997 14.7668219999999994 34.1660320000000013 C
  atom 10.0521259999999995 15.1528930000000006 31.7208199999999998 C
  atom 10.3464899999999993 16.3783020000000015 31.0474700000000006 C
  atom 5.7355250000000000 21.5104369999999996 42.5686380000000000 H
  atom 9.1216130000000000 13.6805070000000004 34.1650330000000011 H
  atom 10.2542840000000002 13.9315759999999997 31.0951379999999986 C
  atom 10.8473780000000009 16.3500130000000006 29.7470099999999995 C
  atom 10.0282119999999999 12.9953769999999995 31.6035040000000009 H
  atom 10.7431180000000008 13.9286019999999997 29.7882560000000005 C
  atom 11.0347059999999999 15.1129820000000006 29.1261809999999990 C
  atom 11.0954940000000004 17.2704619999999984 29.2233729999999987 H
  atom 10.9028500000000008 12.9735969999999998 29.2855980000000002 H
  atom 11.4026829999999997 15.0848320000000005 28.1005989999999990 H
  
  -----------------------------------------------------------------------
  Completed first pass over input file geometry.in .
  -----------------------------------------------------------------------
  

  Basic array size parameters:
  | Number of species                 :        2
  | Number of atoms                   :       48
  | Max. basis fn. angular momentum   :        4
  | Max. atomic/ionic basis occupied n:        2
  | Max. number of basis fn. types    :        2
  | Max. radial fns per species/type  :        8
  | Max. logarithmic grid size        :     1277
  | Max. radial integration grid size :       69
  | Max. angular integration grid size:      434
  | Max. angular grid division number :        8
  | Radial grid for Hartree potential :     1277
  | Number of spin channels           :        1

------------------------------------------------------------
          Reading file control.in.
------------------------------------------------------------
  XC: Using PBE gradient-corrected functionals.
  Scalar relativistic treatment of kinetic energy: ZORA.
  Threshold value for ZORA:   0.100000E-11
  Occupation type: Gaussian broadening, width =   0.100000E-03 eV.
  Since 'load_balancing .true.' is present in control.in, automatically turning on 'use_local_index .true.'.
  Using load balancing for integrations.
  Kohn-Sham electronic structure solved by the ELSI library.
  Using pulay charge density mixing.
  Pulay mixing - number of memorized iterations:    5
  Charge density mixing - mixing parameter:     0.4000
  Convergence accuracy of total energy:  0.1000E-05
  Convergence accuracy of sum of eigenvalues:  0.1000E-03
  Convergence accuracy of self-consistent charge density:  0.1000E-05
  Maximum number of s.-c. iterations  :   100
  * Ignoring prodbas_threshold
  Threshold for basis singularities:  0.1000E-04
  override_illconditioning: Explicitly overriding any built-in checks for an ill-conditioned overlap matrix.
  *** WARNING: If you use this flag, you should really know what you are doing.
  *** DO NOT keep this flag set by default in all your control.in files.
  Using 1D integrations for auxiliary 2-center integrals.
  Spin treatment: No spin polarisation.
  Charge =   0.000000E+00: Neutral system requested explicitly.
 
  Reading configuration options for species H                   .
  | Found nuclear charge :   1.0000
  | Found atomic mass :    1.00794000000000      amu
  | Found l_max for Hartree potential  :   6
  | Found cutoff potl. onset [A], width [A], scale factor :    4.00000    2.00000    1.00000
  | Threshold for basis-dependent cutoff potential is   0.100000E-03
  | Found data for basic radial integration grid :    24 points, outermost radius =    7.000 A
  | Found multiplier for basic radial grid :   2
  | Found angular grid specification: user-specified.
  | Specified grid contains     6 separate shells.
  | Check grid settings after all constraints further below.
  | Found free-atom valence shell :  1 s   1.000
  | No ionic wave fns used. Skipping ion_occ.
  | Found hydrogenic basis function :  2 s   2.100
  | Found hydrogenic basis function :  2 p   3.500
  | Found hydrogenic basis function :  1 s   0.850
  | Found hydrogenic basis function :  2 p   3.700
  | Found hydrogenic basis function :  2 s   1.200
  | Found hydrogenic basis function :  3 d   7.000
  Species H                   : Missing cutoff potential type.
  Defaulting to exp(1/x)/(1-x)^2 type cutoff potential.
  Species H : No 'logarithmic' tag. Using default grid for free atom:
  | Default logarithmic grid data [bohr] : 0.1000E-03 0.1000E+03 0.1012E+01
  Species H : On-site basis accuracy parameter (for Gram-Schmidt orthonormalisation) not specified.
  Using default value basis_acc =  0.1000000E-03.
  Species H                   : Using default innermost maximum threshold i_radial=  2 for radial functions.
  Species H                   : Default cutoff onset for free atom density etc. : 0.40000000E+01 AA.
  Species H                   : Basic radial grid will be enhanced according to radial_multiplier =   2, to contain    49 grid points.
 
  Reading configuration options for species C                   .
  | Found nuclear charge :   6.0000
  | Found atomic mass :    12.0107000000000      amu
  | Found l_max for Hartree potential  :   6
  | Found cutoff potl. onset [A], width [A], scale factor :    4.00000    2.00000    1.00000
  | Threshold for basis-dependent cutoff potential is   0.100000E-03
  | Found data for basic radial integration grid :    34 points, outermost radius =    7.000 A
  | Found multiplier for basic radial grid :   2
  | Found angular grid specification: user-specified.
  | Specified grid contains     6 separate shells.
  | Check grid settings after all constraints further below.
  | Found free-atom valence shell :  2 s   2.000
  | Found free-atom valence shell :  2 p   2.000
  | No ionic wave fns used. Skipping ion_occ.
  | No ionic wave fns used. Skipping ion_occ.
  | Found hydrogenic basis function :  2 p   1.700
  | Found hydrogenic basis function :  3 d   6.000
  | Found hydrogenic basis function :  2 s   4.900
  | Found hydrogenic basis function :  4 f   9.800
  | Found hydrogenic basis function :  3 p   5.200
  | Found hydrogenic basis function :  3 s   4.300
  | Found hydrogenic basis function :  5 g  14.400
  | Found hydrogenic basis function :  3 d   6.200
  Species C                   : Missing cutoff potential type.
  Defaulting to exp(1/x)/(1-x)^2 type cutoff potential.
  Species C : No 'logarithmic' tag. Using default grid for free atom:
  | Default logarithmic grid data [bohr] : 0.1000E-03 0.1000E+03 0.1012E+01
  Species C : On-site basis accuracy parameter (for Gram-Schmidt orthonormalisation) not specified.
  Using default value basis_acc =  0.1000000E-03.
  Species C                   : Using default innermost maximum threshold i_radial=  2 for radial functions.
  Species C                   : Default cutoff onset for free atom density etc. : 0.40000000E+01 AA.
  Species C                   : Basic radial grid will be enhanced according to radial_multiplier =   2, to contain    69 grid points.
 
  Finished reading input file 'control.in'. Consistency checks are next.
 
  MPI_IN_PLACE appears to work with this MPI implementation.
  | Keeping use_mpi_in_place .true. (see manual).
  Target number of points in a grid batch is not set. Defaulting to  100
  Method for grid partitioning is not set. Defaulting to parallel hash+maxmin partitioning.
  Batch size limit is not set. Defaulting to    200
  By default, will store active basis functions for each batch.
  If in need of memory, prune_basis_once .false. can be used to disable this option.
  communication_type for Hartree potential was not specified.
  Defaulting to calc_hartree .
  Pulay mixer: Number of initial linear mixing iterations not set.
  Defaulting to    0 iterations.
  Work space size for distributed Hartree potential not set.
  Defaulting to   0.200000E+03 MB.
  Algorithm-dependent basis array size parameters:
  | n_max_pulay                         :        5
  Presetting      1001 iterations before the initial mixing cycle
  is restarted anyway using the sc_init_iter criterion / keyword.
  Presetting a factor      1.000 between actual scf density residual
  and density convergence criterion sc_accuracy_rho below which sc_init_iter
  takes no effect.
  Calculation of forces was not defined in control.in. No forces will be calculated.
  Geometry relaxation not requested: no relaxation will be performed.
  No accuracy limit for integral partition fn. given. Defaulting to  0.1000E-14.
  No threshold value for u(r) in integrations given. Defaulting to  0.1000E-05.
  No accuracy for occupation numbers given. Defaulting to  0.1000E-12.
  No threshold value for occupation numbers given. Defaulting to  0.0000E+00.
  No accuracy for fermi level given. Defaulting to  0.1000E-19.
  Maximum # of iterations to find E_F not set. Defaulting to  200.
  Will not use alltoall communication since running on < 1024 CPUs.
  partition_type (choice of integration weights) for integrals was not specified.
  | Using a version of the partition function of Stratmann and coworkers ('stratmann_sparse').
  | At each grid point, the set of atoms used to build the partition table is smoothly restricted to
  | only those atoms whose free-atom density would be non-zero at that grid point.
  Partitioning for Hartree potential was not defined. Using partition_type for integrals.
  | Adjusted default value of keyword multip_moments_threshold to:       0.10000000E-11
  | This value may affect high angular momentum components of the Hartree potential in periodic systems.
  No q(lm)/r^(l+1) cutoff set for long-range Hartree potential.
  | Using default value of  0.100000E-09 .
  | Verify using the multipole_threshold keyword.
  Defaulting to new monopole extrapolation.
  Density update method: automatic selection selected.
 * Warning: use_local_index and/or load_balancing needs packed_matrix_format = index
 * Changing the default setting to packed_matrix_format = index
------------------------------------------------------------


------------------------------------------------------------
          Reading geometry description geometry.in.
------------------------------------------------------------
  Input structure read successfully.
  The structure contains       48 atoms,  and a total of        208.000 electrons.

  Input geometry:
  | No unit cell requested.
  | Atomic structure:
  |       Atom                x [A]            y [A]            z [A]
  |    1: Species H             8.84942300       21.76566600       34.53710200
  |    2: Species C             8.56526900       21.17651500       35.40612100
  |    3: Species C             8.13312000       21.87133500       36.55287200
  |    4: Species C             8.65460200       19.78266800       35.34603600
  |    5: Species C             7.76668500       21.15044000       37.67350400
  |    6: Species H             8.10942400       22.95733700       36.53874200
  |    7: Species C             8.26813400       19.03049200       36.49920900
  |    8: Species C             9.12194300       19.03686900       34.17687800
  |    9: Species C             7.24244500       21.47370400       39.00750300
  |   10: Species C             7.84891200       19.74313800       37.61812900
  |   11: Species C             8.26897800       17.60053700       36.58869400
  |   12: Species C             9.10409100       17.60965500       34.25494600
  |   13: Species C             9.58587900       19.62321100       32.99815900
  |   14: Species C             7.02868500       20.24890500       39.71011100
  |   15: Species C             6.91886500       22.68846100       39.60007400
  |   16: Species C             7.42717900       19.14040600       38.82667700
  |   17: Species C             7.88293400       17.01782700       37.79838400
  |   18: Species C             8.68545400       16.85219200       35.40283800
  |   19: Species C             9.52671500       16.89779400       33.14259100
  |   20: Species C            10.03477600       18.87057000       31.88580400
  |   21: Species H             9.60496500       20.70815100       32.90824500
  |   22: Species C             6.48511100       20.26418400       40.98602200
  |   23: Species C             6.37957600       22.68389200       40.88526200
  |   24: Species H             7.07958200       23.62881600       39.07543700
  |   25: Species C             7.45608300       17.76516700       38.91887400
  |   26: Species H             7.88098900       15.93370000       37.88886800
  |   27: Species C             8.72289300       15.46136300       35.32420000
  |   28: Species C             9.55214300       15.48577600       33.06652100
  |   29: Species C            10.00267800       17.49424400       31.95145400
  |   30: Species H            10.39652400       19.39562000       31.00451100
  |   31: Species H             6.30241300       19.33201800       41.52193400
  |   32: Species C             6.16235200       21.49083800       41.56603400
  |   33: Species H             6.13082500       23.63268400       41.36123200
  |   34: Species H             7.13236700       17.23859400       39.81458100
  |   35: Species H             8.40076400       14.86915700       36.17723400
  |   36: Species C             9.14548400       14.76682200       34.16603200
  |   37: Species C            10.05212600       15.15289300       31.72082000
  |   38: Species C            10.34649000       16.37830200       31.04747000
  |   39: Species H             5.73552500       21.51043700       42.56863800
  |   40: Species H             9.12161300       13.68050700       34.16503300
  |   41: Species C            10.25428400       13.93157600       31.09513800
  |   42: Species C            10.84737800       16.35001300       29.74701000
  |   43: Species H            10.02821200       12.99537700       31.60350400
  |   44: Species C            10.74311800       13.92860200       29.78825600
  |   45: Species C            11.03470600       15.11298200       29.12618100
  |   46: Species H            11.09549400       17.27046200       29.22337300
  |   47: Species H            10.90285000       12.97359700       29.28559800
  |   48: Species H            11.40268300       15.08483200       28.10059900
  |

  | The smallest distance between any two atoms is         1.08635238 AA.
  |
  | The first atom of this pair is atom number                      3 .
  | The second atom of this pair is atom number                     6 .

  Number of empty states per atom not set in control.in - providing a guess from actual geometry.
  | Total number of empty states used during s.c.f. cycle:      120
  If you use a very high smearing, use empty_states (per atom!) in control.in to increase this value.

  Structure-dependent array size parameters: 
  | Maximum number of distinct radial functions  :       18
  | Maximum number of basis functions            :     1488
  | Number of Kohn-Sham states (occupied + empty):      224
------------------------------------------------------------

------------------------------------------------------------
          Preparing all fixed parts of the calculation.
------------------------------------------------------------
  Determining machine precision:
    2.225073858507201E-308
  Setting up grids for atomic and cluster calculations.

  Creating wave function, potential, and density for free atoms.

  Species: H

  List of occupied orbitals and eigenvalues:
    n    l              occ      energy [Ha]    energy [eV]
    1    0           1.0000        -0.238386        -6.4868


  Species: C

  List of occupied orbitals and eigenvalues:
    n    l              occ      energy [Ha]    energy [eV]
    1    0           2.0000       -10.049212      -273.4530
    2    0           2.0000        -0.504761       -13.7352
    2    1           2.0000        -0.193631        -5.2690

  Creating fixed part of basis set: Ionic, confined, hydrogenic.
 
  H                    hydrogenic:
 
  List of hydrogenic basis orbitals: 
    n    l      effective z      eigenvalue [eV]  inner max. [A]     outer max. [A]     outer radius [A]   
    2    0         2.100000       -14.9965           0.193243           1.317208           5.373006
    2    1         3.500000       -41.6672           0.602369           0.602369           4.056063
    1    0         0.850000        -9.8292           0.624871           0.624871           5.373006
    2    1         3.700000       -46.5653           0.573622           0.573622           3.910002
    2    0         1.200000        -4.5995           0.334980           2.228188           5.505995
    3    2         7.000000       -74.0753           0.680699           0.680699           3.769201
 
 
  C                    hydrogenic:
 
  List of hydrogenic basis orbitals: 
    n    l      effective z      eigenvalue [eV]  inner max. [A]     outer max. [A]     outer radius [A]   
    2    1         1.700000        -9.8152           1.245706           1.245706           5.401630
    3    2         6.000000       -54.4226           0.792453           0.792453           4.178599
    2    0         4.900000       -81.6681           0.082559           0.562749           3.353238
    4    3         9.800000       -81.6681           0.863254           0.863254           4.028125
    3    1         5.200000       -40.8774           0.305389           1.215618           4.898362
    3    0         4.300000       -27.9508           0.091041           1.610311           5.401630
    5    4        14.400000      -112.8510           0.917666           0.917666           3.883070
    3    2         6.200000       -58.1113           0.763917           0.763917           4.077671
 

  Adding cutoff potential to free-atom effective potential.
  Creating atomic-like basis functions for current effective potential.

  Species H                   :

  List of atomic basis orbitals and eigenvalues:
    n    l      energy [Ha]    energy [eV]    outer radius [A]
    1    0        -0.238386        -6.4868       5.373006


  Species C                   :

  List of atomic basis orbitals and eigenvalues:
    n    l      energy [Ha]    energy [eV]    outer radius [A]
    1    0       -10.049212      -273.4530       1.934409
    2    0        -0.504761       -13.7352       5.271162
    2    1        -0.193631        -5.2690       5.401630

  Assembling full basis from fixed parts.
  | Species H :   atomic orbital   1 s accepted.
  | Species H :    hydro orbital   2 s accepted.
  | Species H :    hydro orbital   1 s accepted.
  | Species H :    hydro orbital   2 s accepted.
  | Species H :    hydro orbital   2 p accepted.
  | Species H :    hydro orbital   2 p accepted.
  | Species H :    hydro orbital   3 d accepted.
  | Species C :   atomic orbital   1 s accepted.
  | Species C :    hydro orbital   2 s accepted.
  | Species C :   atomic orbital   2 s accepted.
  | Species C :    hydro orbital   3 s accepted.
  | Species C :    hydro orbital   3 p accepted.
  | Species C :   atomic orbital   2 p accepted.
  | Species C :    hydro orbital   2 p accepted.
  | Species C :    hydro orbital   3 d accepted.
  | Species C :    hydro orbital   3 d accepted.
  | Species C :    hydro orbital   4 f accepted.
  | Species C :    hydro orbital   5 g accepted.
 
  Basis size parameters after reduction:
  | Total number of radial functions:       18
  | Total number of basis functions :     1488
 
  Per-task memory consumption for arrays in subroutine allocate_ext:
  |           4.448056MB.
  Testing on-site integration grid accuracy.
  |  Species  Function  <phi|h_atom|phi> (log., in eV)  <phi|h_atom|phi> (rad., in eV)
           1        1                 -6.4870767962                 -6.4871688290
           1        2                 13.5032046589                 13.5028982997
           1        3                 32.8195184817                 32.8119941656
           1        4                 33.8513856511                 33.7670005767 ***
           1        5                 28.8544614965                 28.8544615203
           1        6                 59.6326952547                 59.6327656460
           1        7                 60.2719308513                 60.2719305949
           2        8               -273.4529726040               -273.4529710464
           2        9                -10.7721037319                -10.7721022101
           2       10                 17.6044132601                 17.6044162063
           2       11                 53.7706460658                 53.7706913770
           2       12                 15.0973290362                 15.0973256030
           2       13                  3.8545134692                  3.8545724687
           2       14                 12.1156992592                 12.1182024431
           2       15                 29.4352039302                 29.4352041816
           2       16                 54.8741144708                 54.8740268729
           2       17                 59.3556032049                 59.3556031382
           2       18                 93.4551837154                 93.4551838009
 * Note: Onsite integrals marked "***" above are less accurate than
 * onsite_accuracy_threshold =    0.03000 eV. Usually, this is harmless.
 * When in doubt, tighten the "radial" and/or "radial_multiplier" flags to check.

  Preparing densities etc. for the partition functions (integrals / Hartree potential).

  Preparations completed.
  max(cpu_time)          :      0.189 s.
  Wall clock time (cpu1) :      0.179 s.
------------------------------------------------------------

------------------------------------------------------------
          Begin self-consistency loop: Initialization.

          Date     :  20210620, Time     :  173754.167
------------------------------------------------------------

  Initializing index lists of integration centers etc. from given atomic structure:
  | Number of centers in hartree potential         :        48
  | Number of centers in hartree multipole         :        48
  | Number of centers in electron density summation:        48
  | Number of centers in basis integrals           :        48
  | Number of centers in integrals                 :        48
  | Number of centers in hamiltonian               :        48
  * Using 56 tasks for Scalapack Eigenvalue solver.
  Detailed listing of tasks and assigned k-points:
  (for non-periodic systems, the "k-point" denotes an internal label only)
   Task     0 k-point     1 on d024
   Task     1 k-point     1 on d024
   Task     2 k-point     1 on d024
   Task     3 k-point     1 on d024
   Task     4 k-point     1 on d024
   Task     5 k-point     1 on d024
   Task     6 k-point     1 on d024
   Task     7 k-point     1 on d024
   Task     8 k-point     1 on d024
   Task     9 k-point     1 on d024
   Task    10 k-point     1 on d024
   Task    11 k-point     1 on d024
   Task    12 k-point     1 on d024
   Task    13 k-point     1 on d024
   Task    14 k-point     1 on d024
   Task    15 k-point     1 on d024
   Task    16 k-point     1 on d024
   Task    17 k-point     1 on d024
   Task    18 k-point     1 on d024
   Task    19 k-point     1 on d024
   Task    20 k-point     1 on d024
   Task    21 k-point     1 on d024
   Task    22 k-point     1 on d024
   Task    23 k-point     1 on d024
   Task    24 k-point     1 on d024
   Task    25 k-point     1 on d024
   Task    26 k-point     1 on d024
   Task    27 k-point     1 on d024
   Task    28 k-point     1 on d024
   Task    29 k-point     1 on d024
   Task    30 k-point     1 on d024
   Task    31 k-point     1 on d024
   Task    32 k-point     1 on d024
   Task    33 k-point     1 on d024
   Task    34 k-point     1 on d024
   Task    35 k-point     1 on d024
   Task    36 k-point     1 on d024
   Task    37 k-point     1 on d024
   Task    38 k-point     1 on d024
   Task    39 k-point     1 on d024
   Task    40 k-point     1 on d024
   Task    41 k-point     1 on d024
   Task    42 k-point     1 on d024
   Task    43 k-point     1 on d024
   Task    44 k-point     1 on d024
   Task    45 k-point     1 on d024
   Task    46 k-point     1 on d024
   Task    47 k-point     1 on d024
   Task    48 k-point     1 on d024
   Task    49 k-point     1 on d024
   Task    50 k-point     1 on d024
   Task    51 k-point     1 on d024
   Task    52 k-point     1 on d024
   Task    53 k-point     1 on d024
   Task    54 k-point     1 on d024
   Task    55 k-point     1 on d024
  Tasks:    56 split into      8 X      7 BLACS grid
  Calculating block size based on n_basis =         1488 max_nprow =            8 max_npcol =            7
  ScaLAPACK block size set to:           16
  Allocating        0.344 MB for ovlp
  Allocating        0.344 MB for ham
  Allocating        0.344 MB for eigenvec
  Required Scalapack workspace - INTEGER:            1 REAL:             1
  Partitioning the integration grid into batches with parallel hashing+maxmin method.
  | Number of batches:     7532
  | Maximal batch size:     196
  | Minimal batch size:      23
  | Average batch size:     107.501
  | Standard deviation of batch sizes:      37.229

  Integration load balanced across     56 MPI tasks.
  Work distribution over tasks is as follows:
  Task      0 has      14522 integration points.
  Task      1 has      14544 integration points.
  Task      2 has      14405 integration points.
  Task      3 has      14536 integration points.
  Task      4 has      14492 integration points.
  Task      5 has      14474 integration points.
  Task      6 has      14345 integration points.
  Task      7 has      14613 integration points.
  Task      8 has      14506 integration points.
  Task      9 has      14297 integration points.
  Task     10 has      14593 integration points.
  Task     11 has      14415 integration points.
  Task     12 has      14431 integration points.
  Task     13 has      14334 integration points.
  Task     14 has      14488 integration points.
  Task     15 has      14479 integration points.
  Task     16 has      14471 integration points.
  Task     17 has      14465 integration points.
  Task     18 has      14454 integration points.
  Task     19 has      14448 integration points.
  Task     20 has      14386 integration points.
  Task     21 has      14509 integration points.
  Task     22 has      14518 integration points.
  Task     23 has      14407 integration points.
  Task     24 has      14503 integration points.
  Task     25 has      14395 integration points.
  Task     26 has      14462 integration points.
  Task     27 has      14396 integration points.
  Task     28 has      14525 integration points.
  Task     29 has      14496 integration points.
  Task     30 has      14371 integration points.
  Task     31 has      14536 integration points.
  Task     32 has      14449 integration points.
  Task     33 has      14543 integration points.
  Task     34 has      14322 integration points.
  Task     35 has      14531 integration points.
  Task     36 has      14459 integration points.
  Task     37 has      14385 integration points.
  Task     38 has      14541 integration points.
  Task     39 has      14399 integration points.
  Task     40 has      14519 integration points.
  Task     41 has      14368 integration points.
  Task     42 has      14579 integration points.
  Task     43 has      14542 integration points.
  Task     44 has      14318 integration points.
  Task     45 has      14589 integration points.
  Task     46 has      14372 integration points.
  Task     47 has      14538 integration points.
  Task     48 has      14274 integration points.
  Task     49 has      14533 integration points.
  Task     50 has      14471 integration points.
  Task     51 has      14418 integration points.
  Task     52 has      14488 integration points.
  Task     53 has      14435 integration points.
  Task     54 has      14473 integration points.
  Task     55 has      14334 integration points.
  Initializing partition tables, free-atom densities, potentials, etc. across the integration grid (initialize_grid_storage).
  | initialize_grid_storage: Actual outermost partition radius vs. multipole_radius_free
  | (-- VB: in principle, multipole_radius_free should be larger, hence this output)
  | Species        1: Confinement radius =              6.000000000000000 AA, multipole_radius_free =              6.071692442739658 AA.
  | Species        1: outer_partition_radius set to              6.071692442739658 AA .
  | Species        2: Confinement radius =              6.000000000000000 AA, multipole_radius_free =              6.029870734432609 AA.
  | Species        2: outer_partition_radius set to              6.029870734432609 AA .
  | The sparse table of interatomic distances needs     26.7880 kbyte instead of    18.4320 kbyte of memory.
  | Using the partition_type stratmann_smoother will reduce your memory usage.
  | Net number of integration points:   809696
  | of which are non-zero points    :   648763
  Renormalizing the initial density to the exact electron count on the 3D integration grid.
  | Initial density: Formal number of electrons (from input files) :     208.0000000000
  | Integrated number of electrons on 3D grid     :     208.0001282818
  | Charge integration error                      :       0.0001282818
  | Normalization factor for density and gradient :       0.9999993833
  Obtaining max. number of non-zero basis functions in each batch (get_n_compute_maxes).
  | Maximal number of non-zero basis functions:      924
  Selecting the method for density update.
  Loop over occupied states selected for charge density update.
  Hamiltonian matrix size:
  | Size of matrix non-packed:               1107816
  | Size of matrix packed:          892163
  Allocating        2.666 MB for KS_eigenvector
  use_local_index: Max. local matrix size =       631943
  Task:     0 matrix size:     142260
  Task:     1 matrix size:     226050
  Task:     2 matrix size:     294491
  Task:     3 matrix size:     240595
  Task:     4 matrix size:     345474
  Task:     5 matrix size:     493319
  Task:     6 matrix size:     488687
  Task:     7 matrix size:      74305
  Task:     8 matrix size:     137026
  Task:     9 matrix size:     127260
  Task:    10 matrix size:     178585
  Task:    11 matrix size:     253420
  Task:    12 matrix size:     438456
  Task:    13 matrix size:     407241
  Task:    14 matrix size:     353110
  Task:    15 matrix size:     520700
  Task:    16 matrix size:     383512
  Task:    17 matrix size:     607425
  Task:    18 matrix size:     574304
  Task:    19 matrix size:     455878
  Task:    20 matrix size:     412699
  Task:    21 matrix size:     290037
  Task:    22 matrix size:     284735
  Task:    23 matrix size:     213558
  Task:    24 matrix size:     627814
  Task:    25 matrix size:     580688
  Task:    26 matrix size:     491720
  Task:    27 matrix size:     360945
  Task:    28 matrix size:     345785
  Task:    29 matrix size:     590255
  Task:    30 matrix size:     631943
  Task:    31 matrix size:     243479
  Task:    32 matrix size:     323924
  Task:    33 matrix size:     325530
  Task:    34 matrix size:     176550
  Task:    35 matrix size:     339662
  Task:    36 matrix size:     579246
  Task:    37 matrix size:     593947
  Task:    38 matrix size:     378243
  Task:    39 matrix size:     554431
  Task:    40 matrix size:     313749
  Task:    41 matrix size:     435460
  Task:    42 matrix size:     442443
  Task:    43 matrix size:     332201
  Task:    44 matrix size:     206997
  Task:    45 matrix size:     188170
  Task:    46 matrix size:     117855
  Task:    47 matrix size:     112101
  Task:    48 matrix size:     133903
  Task:    49 matrix size:     446012
  Task:    50 matrix size:     457421
  Task:    51 matrix size:     447022
  Task:    52 matrix size:     381477
  Task:    53 matrix size:     267249
  Task:    54 matrix size:     280354
  Task:    55 matrix size:     178477
  Integrating Hamiltonian matrix: batch-based integration.
  Time summed over all CPUs for integration: real work      138.567 s, elapsed      261.940 s
  Time get_set_sparse_local_matrix_scalapack:     0.013476 s
  Start compute_balanced_batch_distribution
  Done load balancing, time needed:      0.008 s
  Integrating overlap matrix with loadbalancing
  Time summed over all CPUs for integration: real work       39.807 s, elapsed       45.566 s
  Time get_set_full_local_matrix_scalapack:     0.015006 s

  Updating Kohn-Sham eigenvalues and eigenvectors using ELSI and the ELPA eigensolver.
  Overlap matrix is not singular
  | Lowest and highest eigenvalues :  0.11E+02,  0.84E-04
  Finished singularity check of overlap matrix
  | Time :     0.088 s
  Finished Cholesky decomposition
  | Time :     0.019 s
  Finished transformation to standard eigenproblem
  | Time :     0.014 s
  Starting ELPA eigensolver
  Finished solving standard eigenproblem
  | Time :     0.090 s
  Finished back-transformation of eigenvectors
  | Time :     0.004 s

  Obtaining occupation numbers and chemical potential using ELSI.
  | Chemical potential (Fermi level):    -8.32415535 eV
  Writing Kohn-Sham eigenvalues.

  State    Occupation    Eigenvalue [Ha]    Eigenvalue [eV]
      1       2.00000         -10.174550         -276.86359
      2       2.00000         -10.174348         -276.85810
      3       2.00000         -10.170450         -276.75202
      4       2.00000         -10.170358         -276.74952
      5       2.00000         -10.170135         -276.74347
      6       2.00000         -10.170109         -276.74276
      7       2.00000         -10.169884         -276.73664
      8       2.00000         -10.169863         -276.73606
      9       2.00000         -10.169688         -276.73129
     10       2.00000         -10.169474         -276.72547
     11       2.00000         -10.169306         -276.72089
     12       2.00000         -10.168989         -276.71226
     13       2.00000         -10.168961         -276.71150
     14       2.00000         -10.168655         -276.70317
     15       2.00000         -10.167418         -276.66952
     16       2.00000         -10.167310         -276.66659
     17       2.00000         -10.167247         -276.66486
     18       2.00000         -10.167136         -276.66186
     19       2.00000         -10.166980         -276.65760
     20       2.00000         -10.166869         -276.65457
     21       2.00000         -10.166832         -276.65358
     22       2.00000         -10.166465         -276.64359
     23       2.00000         -10.166451         -276.64320
     24       2.00000         -10.166014         -276.63132
     25       2.00000         -10.163883         -276.57334
     26       2.00000         -10.163577         -276.56502
     27       2.00000         -10.163486         -276.56253
     28       2.00000         -10.162119         -276.52532
     29       2.00000         -10.162026         -276.52280
     30       2.00000         -10.161703         -276.51400
     31       2.00000         -10.161631         -276.51206
     32       2.00000         -10.161405         -276.50590
     33       2.00000          -1.034078          -28.13870
     34       2.00000          -1.028123          -27.97665
     35       2.00000          -0.995932          -27.10068
     36       2.00000          -0.983217          -26.75469
     37       2.00000          -0.965864          -26.28249
     38       2.00000          -0.955651          -26.00460
     39       2.00000          -0.950889          -25.87501
     40       2.00000          -0.927395          -25.23569
     41       2.00000          -0.898380          -24.44616
     42       2.00000          -0.890545          -24.23295
     43       2.00000          -0.887587          -24.15246
     44       2.00000          -0.874801          -23.80456
     45       2.00000          -0.874128          -23.78624
     46       2.00000          -0.870091          -23.67639
     47       2.00000          -0.847554          -23.06312
     48       2.00000          -0.836447          -22.76087
     49       2.00000          -0.797195          -21.69277
     50       2.00000          -0.791982          -21.55093
     51       2.00000          -0.773507          -21.04821
     52       2.00000          -0.769125          -20.92895
     53       2.00000          -0.763944          -20.78796
     54       2.00000          -0.737559          -20.07000
     55       2.00000          -0.732813          -19.94087
     56       2.00000          -0.723560          -19.68908
     57       2.00000          -0.722429          -19.65829
     58       2.00000          -0.691407          -18.81415
     59       2.00000          -0.675257          -18.37469
     60       2.00000          -0.670628          -18.24873
     61       2.00000          -0.665401          -18.10649
     62       2.00000          -0.651714          -17.73405
     63       2.00000          -0.647609          -17.62233
     64       2.00000          -0.643244          -17.50355
     65       2.00000          -0.628724          -17.10845
     66       2.00000          -0.618746          -16.83695
     67       2.00000          -0.615851          -16.75817
     68       2.00000          -0.607207          -16.52295
     69       2.00000          -0.600190          -16.33200
     70       2.00000          -0.592786          -16.13053
     71       2.00000          -0.585314          -15.92719
     72       2.00000          -0.582002          -15.83708
     73       2.00000          -0.581621          -15.82671
     74       2.00000          -0.575917          -15.67149
     75       2.00000          -0.571940          -15.56328
     76       2.00000          -0.571555          -15.55281
     77       2.00000          -0.549602          -14.95542
     78       2.00000          -0.549404          -14.95006
     79       2.00000          -0.542727          -14.76837
     80       2.00000          -0.539116          -14.67008
     81       2.00000          -0.538486          -14.65296
     82       2.00000          -0.537353          -14.62213
     83       2.00000          -0.530852          -14.44522
     84       2.00000          -0.514791          -14.00819
     85       2.00000          -0.509474          -13.86350
     86       2.00000          -0.508986          -13.85022
     87       2.00000          -0.503554          -13.70239
     88       2.00000          -0.499462          -13.59106
     89       2.00000          -0.492349          -13.39751
     90       2.00000          -0.490836          -13.35632
     91       2.00000          -0.489297          -13.31445
     92       2.00000          -0.481505          -13.10241
     93       2.00000          -0.481016          -13.08911
     94       2.00000          -0.461794          -12.56607
     95       2.00000          -0.461353          -12.55406
     96       2.00000          -0.427692          -11.63809
     97       2.00000          -0.422211          -11.48894
     98       2.00000          -0.406926          -11.07301
     99       2.00000          -0.400453          -10.89689
    100       2.00000          -0.395462          -10.76106
    101       2.00000          -0.387374          -10.54097
    102       2.00000          -0.382997          -10.42188
    103       2.00000          -0.362214           -9.85635
    104       2.00000          -0.346329           -9.42408
    105       0.00000          -0.285897           -7.77965
    106       0.00000          -0.238055           -6.47782
    107       0.00000          -0.232237           -6.31949
    108       0.00000          -0.218878           -5.95598
    109       0.00000          -0.218056           -5.93361
    110       0.00000          -0.200591           -5.45836
    111       0.00000          -0.194668           -5.29719
    112       0.00000          -0.178160           -4.84799
    113       0.00000          -0.170962           -4.65212
    114       0.00000          -0.133488           -3.63240
    115       0.00000          -0.117817           -3.20597
    116       0.00000          -0.098357           -2.67644
    117       0.00000          -0.073655           -2.00425
    118       0.00000          -0.067521           -1.83735
    119       0.00000          -0.066474           -1.80886
    120       0.00000          -0.059639           -1.62287
    121       0.00000          -0.051829           -1.41034
    122       0.00000          -0.050026           -1.36127
    123       0.00000          -0.041003           -1.11576
    124       0.00000          -0.039482           -1.07437
    125       0.00000          -0.038035           -1.03499
    126       0.00000          -0.036662           -0.99763
    127       0.00000          -0.033798           -0.91968
    128       0.00000          -0.031782           -0.86483
    129       0.00000          -0.023747           -0.64620
    130       0.00000          -0.022365           -0.60859
    131       0.00000          -0.021316           -0.58003
    132       0.00000          -0.012856           -0.34983
    133       0.00000          -0.005961           -0.16221
    134       0.00000          -0.004083           -0.11111
    135       0.00000          -0.003362           -0.09149
    136       0.00000           0.007717            0.20999
    137       0.00000           0.009130            0.24844
    138       0.00000           0.012601            0.34290
    139       0.00000           0.017836            0.48535
    140       0.00000           0.018734            0.50979
    141       0.00000           0.021941            0.59705
    142       0.00000           0.023160            0.63022
    143       0.00000           0.025470            0.69308
    144       0.00000           0.033594            0.91415
    145       0.00000           0.035666            0.97053
    146       0.00000           0.038940            1.05961
    147       0.00000           0.040416            1.09978
    148       0.00000           0.040671            1.10672
    149       0.00000           0.041612            1.13231
    150       0.00000           0.043422            1.18158
    151       0.00000           0.048993            1.33317
    152       0.00000           0.052446            1.42714
    153       0.00000           0.053533            1.45672
    154       0.00000           0.056014            1.52422
    155       0.00000           0.058934            1.60368
    156       0.00000           0.066823            1.81835
    157       0.00000           0.067274            1.83063
    158       0.00000           0.067646            1.84075
    159       0.00000           0.068556            1.86551
    160       0.00000           0.072816            1.98143
    161       0.00000           0.077772            2.11629
    162       0.00000           0.083694            2.27743
    163       0.00000           0.084738            2.30584
    164       0.00000           0.086938            2.36570
    165       0.00000           0.088360            2.40439
    166       0.00000           0.093563            2.54597
    167       0.00000           0.093807            2.55261
    168       0.00000           0.099195            2.69925
    169       0.00000           0.102538            2.79019
    170       0.00000           0.103145            2.80673
    171       0.00000           0.108920            2.96385
    172       0.00000           0.110262            3.00038
    173       0.00000           0.114779            3.12331
    174       0.00000           0.116017            3.15699
    175       0.00000           0.117964            3.20996
    176       0.00000           0.118560            3.22618
    177       0.00000           0.129777            3.53142
    178       0.00000           0.131713            3.58409
    179       0.00000           0.132136            3.59561
    180       0.00000           0.134444            3.65840
    181       0.00000           0.136804            3.72262
    182       0.00000           0.140107            3.81251
    183       0.00000           0.143843            3.91415
    184       0.00000           0.148510            4.04116
    185       0.00000           0.149753            4.07499
    186       0.00000           0.154912            4.21538
    187       0.00000           0.155394            4.22847
    188       0.00000           0.156342            4.25429
    189       0.00000           0.156651            4.26268
    190       0.00000           0.156855            4.26825
    191       0.00000           0.164660            4.48063
    192       0.00000           0.165854            4.51311
    193       0.00000           0.170317            4.63457
    194       0.00000           0.170635            4.64321
    195       0.00000           0.178254            4.85054
    196       0.00000           0.178486            4.85686
    197       0.00000           0.179466            4.88351
    198       0.00000           0.183605            4.99613
    199       0.00000           0.185254            5.04101
    200       0.00000           0.190252            5.17703
    201       0.00000           0.191321            5.20611
    202       0.00000           0.197536            5.37522
    203       0.00000           0.198771            5.40885
    204       0.00000           0.204840            5.57399
    205       0.00000           0.206892            5.62983
    206       0.00000           0.209965            5.71344
    207       0.00000           0.210288            5.72223
    208       0.00000           0.215329            5.85941
    209       0.00000           0.216118            5.88087
    210       0.00000           0.216948            5.90345
    211       0.00000           0.218758            5.95270
    212       0.00000           0.230558            6.27380
    213       0.00000           0.233491            6.35360
    214       0.00000           0.233661            6.35823
    215       0.00000           0.238018            6.47679
    216       0.00000           0.239206            6.50913
    217       0.00000           0.240810            6.55278
    218       0.00000           0.241871            6.58165
    219       0.00000           0.246797            6.71569
    220       0.00000           0.251602            6.84645
    221       0.00000           0.258245            7.02719
    222       0.00000           0.261188            7.10728
    223       0.00000           0.263617            7.17337
    224       0.00000           0.265006            7.21118

  Highest occupied state (VBM) at     -9.42408220 eV
  | Occupation number:      2.00000000

  Lowest unoccupied state (CBM) at    -7.77965402 eV
  | Occupation number:      0.00000000

  Overall HOMO-LUMO gap:      1.64442818 eV.
  Calculating total energy contributions from superposition of free atom densities.

  Total energy components:
  | Sum of eigenvalues            :        -743.95370141 Ha      -20244.01021935 eV
  | XC energy correction          :        -175.46845164 Ha       -4774.73950531 eV
  | XC potential correction       :         225.38336026 Ha        6132.99327582 eV
  | Free-atom electrostatic energy:        -535.98256471 Ha      -14584.82765372 eV
  | Hartree energy correction     :           0.00000000 Ha           0.00000000 eV
  | Entropy correction            :           0.00000000 Ha           0.00000000 eV
  | ---------------------------
  | Total energy                  :       -1230.02135752 Ha      -33470.58410256 eV
  | Total energy, T -> 0          :       -1230.02135752 Ha      -33470.58410256 eV  <-- do not rely on this value for anything but (periodic) metals
  | Electronic free energy        :       -1230.02135752 Ha      -33470.58410256 eV

  Derived energy quantities:
  | Kinetic energy                :        1219.52577861 Ha       33184.98486945 eV
  | Electrostatic energy          :       -2274.07868448 Ha      -61880.82946670 eV
  | Energy correction for multipole
  | error in Hartree potential    :           0.00000000 Ha           0.00000000 eV
  | Sum of eigenvalues per atom                           :        -421.75021290 eV
  | Total energy (T->0) per atom                          :        -697.30383547 eV  <-- do not rely on this value for anything but (periodic) metals
  | Electronic free energy per atom                       :        -697.30383547 eV
  Initialize hartree_potential_storage
  Max. number of atoms included in rho_multipole:           48

  End scf initialization - timings             :  max(cpu_time)    wall_clock(cpu1)
  | Time for scf. initialization               :        7.303 s           7.361 s
  | Boundary condition initialization          :        0.001 s           0.004 s
  | Integration                                :        5.542 s           5.548 s
  | Solution of K.-S. eqns.                    :        0.235 s           0.253 s
  | Grid partitioning                          :        0.831 s           0.835 s
  | Preloading free-atom quantities on grid    :        0.013 s           0.016 s
  | Free-atom superposition energy             :        0.061 s           0.061 s
  | Total energy evaluation                    :        0.001 s           0.003 s

  Partial memory accounting:
  | Current value for overall tracked memory usage on task 0  :           4.268 MB
  | Peak value for overall tracked memory usage on task 0     :          25.298 MB after allocating zora_vector2
  | Largest tracked array allocation on task 0 so far         :           6.830 MB  when allocating hamiltonian_shell
  Note:  These values currently only include a subset of arrays which are explicitly tracked.
  The "true" memory usage will be greater.
------------------------------------------------------------

------------------------------------------------------------
          Begin self-consistency iteration #    1

  Date     :  20210620, Time     :  173801.531
------------------------------------------------------------
  Evaluating new KS density.
  Integration grid: deviation in total charge (<rho> - N_e) =   1.136868E-13
  Pulay mixing of updated and previous charge densities.

  Evaluating partitioned Hartree potential by multipole expansion.
  | Analytical far-field extrapolation by fixed multipoles:
  | Hartree multipole sum: apparent total charge =   0.119157E-03
  Summing up the Hartree potential with load balancing.
  Time summed over all CPUs for potential: real work       24.533 s, elapsed       38.878 s
  | RMS charge density error from multipole expansion :   0.134962E-01

  Start compute_balanced_batch_distribution
  Done load balancing, time needed:      0.007 s
  Integrating Hamiltonian matrix: batch-based integration with load balancing
  Time summed over all CPUs for integration: real work      152.124 s, elapsed      169.077 s
  Time get_set_full_local_matrix_scalapack:     0.015019 s
  Start compute_balanced_batch_distribution
  Done load balancing, time needed:      0.007 s

  Updating Kohn-Sham eigenvalues and eigenvectors using ELSI and the ELPA eigensolver.
  Finished transformation to standard eigenproblem
  | Time :     0.016 s
  Starting ELPA eigensolver
  Finished solving standard eigenproblem
  | Time :     0.091 s
  Finished back-transformation of eigenvectors
  | Time :     0.004 s

  Obtaining occupation numbers and chemical potential using ELSI.
  | Chemical potential (Fermi level):    -5.95665269 eV
  Writing Kohn-Sham eigenvalues.

  State    Occupation    Eigenvalue [Ha]    Eigenvalue [eV]
      1       2.00000          -9.994500         -271.96418
      2       2.00000          -9.994366         -271.96053
      3       2.00000          -9.994236         -271.95701
      4       2.00000          -9.993769         -271.94430
      5       2.00000          -9.978040         -271.51628
      6       2.00000          -9.977985         -271.51477
      7       2.00000          -9.971301         -271.33290
      8       2.00000          -9.969239         -271.27679
      9       2.00000          -9.968907         -271.26777
     10       2.00000          -9.968879         -271.26701
     11       2.00000          -9.968517         -271.25715
     12       2.00000          -9.967649         -271.23354
     13       2.00000          -9.967386         -271.22638
     14       2.00000          -9.967264         -271.22306
     15       2.00000          -9.966555         -271.20377
     16       2.00000          -9.966312         -271.19714
     17       2.00000          -9.966300         -271.19683
     18       2.00000          -9.966255         -271.19561
     19       2.00000          -9.965912         -271.18627
     20       2.00000          -9.965677         -271.17987
     21       2.00000          -9.965461         -271.17398
     22       2.00000          -9.965152         -271.16559
     23       2.00000          -9.950214         -270.75910
     24       2.00000          -9.948802         -270.72067
     25       2.00000          -9.948197         -270.70422
     26       2.00000          -9.948137         -270.70258
     27       2.00000          -9.947471         -270.68446
     28       2.00000          -9.946779         -270.66562
     29       2.00000          -9.940996         -270.50826
     30       2.00000          -9.940655         -270.49898
     31       2.00000          -9.940400         -270.49204
     32       2.00000          -9.940204         -270.48672
     33       2.00000          -0.888412          -24.17492
     34       2.00000          -0.875812          -23.83206
     35       2.00000          -0.849935          -23.12792
     36       2.00000          -0.829882          -22.58223
     37       2.00000          -0.828243          -22.53763
     38       2.00000          -0.808976          -22.01335
     39       2.00000          -0.803603          -21.86716
     40       2.00000          -0.777287          -21.15105
     41       2.00000          -0.759941          -20.67905
     42       2.00000          -0.752963          -20.48917
     43       2.00000          -0.740690          -20.15519
     44       2.00000          -0.735298          -20.00847
     45       2.00000          -0.728763          -19.83066
     46       2.00000          -0.721004          -19.61952
     47       2.00000          -0.695843          -18.93486
     48       2.00000          -0.694179          -18.88957
     49       2.00000          -0.657221          -17.88389
     50       2.00000          -0.654651          -17.81396
     51       2.00000          -0.631602          -17.18677
     52       2.00000          -0.631501          -17.18403
     53       2.00000          -0.628384          -17.09920
     54       2.00000          -0.598093          -16.27495
     55       2.00000          -0.591033          -16.08283
     56       2.00000          -0.583375          -15.87443
     57       2.00000          -0.582397          -15.84782
     58       2.00000          -0.551987          -15.02033
     59       2.00000          -0.551108          -14.99640
     60       2.00000          -0.534190          -14.53604
     61       2.00000          -0.532517          -14.49051
     62       2.00000          -0.519596          -14.13893
     63       2.00000          -0.515633          -14.03108
     64       2.00000          -0.508061          -13.82505
     65       2.00000          -0.486264          -13.23192
     66       2.00000          -0.484641          -13.18775
     67       2.00000          -0.477838          -13.00262
     68       2.00000          -0.470338          -12.79855
     69       2.00000          -0.458739          -12.48293
     70       2.00000          -0.455557          -12.39634
     71       2.00000          -0.453602          -12.34313
     72       2.00000          -0.451319          -12.28102
     73       2.00000          -0.440633          -11.99024
     74       2.00000          -0.439617          -11.96258
     75       2.00000          -0.435292          -11.84489
     76       2.00000          -0.433288          -11.79037
     77       2.00000          -0.432186          -11.76037
     78       2.00000          -0.425494          -11.57828
     79       2.00000          -0.417006          -11.34731
     80       2.00000          -0.415139          -11.29650
     81       2.00000          -0.412050          -11.21245
     82       2.00000          -0.410290          -11.16456
     83       2.00000          -0.389553          -10.60026
     84       2.00000          -0.388031          -10.55886
     85       2.00000          -0.381751          -10.38799
     86       2.00000          -0.371226          -10.10158
     87       2.00000          -0.370606          -10.08469
     88       2.00000          -0.365249           -9.93892
     89       2.00000          -0.362444           -9.86261
     90       2.00000          -0.359464           -9.78151
     91       2.00000          -0.355477           -9.67302
     92       2.00000          -0.348523           -9.48379
     93       2.00000          -0.346089           -9.41757
     94       2.00000          -0.345223           -9.39399
     95       2.00000          -0.336392           -9.15369
     96       2.00000          -0.304950           -8.29812
     97       2.00000          -0.303944           -8.27075
     98       2.00000          -0.283381           -7.71119
     99       2.00000          -0.282414           -7.68488
    100       2.00000          -0.276016           -7.51077
    101       2.00000          -0.265096           -7.21362
    102       2.00000          -0.253182           -6.88942
    103       2.00000          -0.234241           -6.37403
    104       2.00000          -0.225873           -6.14633
    105       0.00000          -0.168972           -4.59795
    106       0.00000          -0.119507           -3.25194
    107       0.00000          -0.112703           -3.06681
    108       0.00000          -0.101717           -2.76786
    109       0.00000          -0.098408           -2.67781
    110       0.00000          -0.074714           -2.03306
    111       0.00000          -0.073770           -2.00737
    112       0.00000          -0.055245           -1.50330
    113       0.00000          -0.047841           -1.30183
    114       0.00000          -0.030522           -0.83054
    115       0.00000          -0.025411           -0.69147
    116       0.00000          -0.023887           -0.65000
    117       0.00000          -0.020300           -0.55240
    118       0.00000          -0.016440           -0.44736
    119       0.00000          -0.012889           -0.35073
    120       0.00000          -0.004921           -0.13391
    121       0.00000          -0.001537           -0.04184
    122       0.00000           0.005990            0.16298
    123       0.00000           0.008572            0.23325
    124       0.00000           0.014975            0.40749
    125       0.00000           0.016744            0.45564
    126       0.00000           0.025372            0.69040
    127       0.00000           0.030787            0.83775
    128       0.00000           0.049443            1.34542
    129       0.00000           0.050034            1.36148
    130       0.00000           0.055830            1.51922
    131       0.00000           0.063309            1.72273
    132       0.00000           0.070487            1.91806
    133       0.00000           0.071653            1.94976
    134       0.00000           0.078215            2.12833
    135       0.00000           0.083337            2.26773
    136       0.00000           0.084561            2.30103
    137       0.00000           0.086312            2.34866
    138       0.00000           0.086733            2.36011
    139       0.00000           0.089664            2.43989
    140       0.00000           0.090857            2.47235
    141       0.00000           0.093903            2.55523
    142       0.00000           0.095486            2.59831
    143       0.00000           0.098902            2.69126
    144       0.00000           0.106442            2.89643
    145       0.00000           0.107283            2.91932
    146       0.00000           0.108421            2.95028
    147       0.00000           0.112200            3.05312
    148       0.00000           0.112603            3.06409
    149       0.00000           0.115969            3.15569
    150       0.00000           0.117637            3.20107
    151       0.00000           0.123148            3.35103
    152       0.00000           0.124122            3.37752
    153       0.00000           0.126034            3.42955
    154       0.00000           0.127854            3.47908
    155       0.00000           0.133017            3.61956
    156       0.00000           0.133234            3.62548
    157       0.00000           0.133758            3.63973
    158       0.00000           0.137685            3.74659
    159       0.00000           0.140678            3.82804
    160       0.00000           0.142887            3.88815
    161       0.00000           0.147141            4.00392
    162       0.00000           0.148829            4.04984
    163       0.00000           0.155729            4.23762
    164       0.00000           0.157244            4.27883
    165       0.00000           0.157602            4.28856
    166       0.00000           0.160128            4.35730
    167       0.00000           0.160907            4.37851
    168       0.00000           0.167911            4.56909
    169       0.00000           0.169503            4.61241
    170       0.00000           0.170789            4.64740
    171       0.00000           0.174365            4.74473
    172       0.00000           0.178136            4.84732
    173       0.00000           0.187325            5.09736
    174       0.00000           0.188366            5.12569
    175       0.00000           0.190370            5.18022
    176       0.00000           0.193324            5.26063
    177       0.00000           0.195540            5.32093
    178       0.00000           0.195707            5.32545
    179       0.00000           0.196421            5.34490
    180       0.00000           0.202302            5.50492
    181       0.00000           0.204959            5.57721
    182       0.00000           0.206694            5.62442
    183       0.00000           0.210277            5.72194
    184       0.00000           0.210957            5.74043
    185       0.00000           0.214541            5.83797
    186       0.00000           0.226045            6.15099
    187       0.00000           0.227518            6.19108
    188       0.00000           0.229034            6.23233
    189       0.00000           0.233423            6.35175
    190       0.00000           0.233789            6.36171
    191       0.00000           0.235110            6.39766
    192       0.00000           0.236706            6.44109
    193       0.00000           0.239522            6.51774
    194       0.00000           0.242318            6.59382
    195       0.00000           0.247599            6.73752
    196       0.00000           0.251097            6.83270
    197       0.00000           0.257758            7.01396
    198       0.00000           0.259069            7.04964
    199       0.00000           0.259995            7.07481
    200       0.00000           0.260552            7.08999
    201       0.00000           0.263929            7.18187
    202       0.00000           0.268247            7.29936
    203       0.00000           0.270536            7.36167
    204       0.00000           0.272251            7.40832
    205       0.00000           0.279873            7.61573
    206       0.00000           0.284384            7.73848
    207       0.00000           0.292601            7.96207
    208       0.00000           0.294137            8.00388
    209       0.00000           0.294469            8.01290
    210       0.00000           0.296404            8.06557
    211       0.00000           0.297645            8.09932
    212       0.00000           0.299330            8.14519
    213       0.00000           0.303694            8.26394
    214       0.00000           0.306216            8.33255
    215       0.00000           0.309682            8.42688
    216       0.00000           0.312278            8.49751
    217       0.00000           0.320039            8.70870
    218       0.00000           0.322819            8.78435
    219       0.00000           0.326874            8.89469
    220       0.00000           0.333404            9.07240
    221       0.00000           0.337486            9.18346
    222       0.00000           0.337902            9.19477
    223       0.00000           0.342051            9.30769
    224       0.00000           0.346627            9.43221

  Highest occupied state (VBM) at     -6.14633024 eV
  | Occupation number:      2.00000000

[...]
     54       2.00000          -0.540380          -14.70448
     55       2.00000          -0.533480          -14.51673
     56       2.00000          -0.525004          -14.28608
     57       2.00000          -0.524410          -14.26992
     58       2.00000          -0.495263          -13.47680
     59       2.00000          -0.488576          -13.29484
     60       2.00000          -0.473132          -12.87457
     61       2.00000          -0.472001          -12.84381
     62       2.00000          -0.457960          -12.46174
     63       2.00000          -0.453102          -12.32954
     64       2.00000          -0.451900          -12.29684
     65       2.00000          -0.425880          -11.58879
     66       2.00000          -0.424091          -11.54010
     67       2.00000          -0.420887          -11.45291
     68       2.00000          -0.408271          -11.10962
     69       2.00000          -0.399286          -10.86513
     70       2.00000          -0.393683          -10.71265
     71       2.00000          -0.393209          -10.69977
     72       2.00000          -0.392119          -10.67010
     73       2.00000          -0.389050          -10.58660
     74       2.00000          -0.381427          -10.37915
     75       2.00000          -0.379833          -10.33578
     76       2.00000          -0.378260          -10.29299
     77       2.00000          -0.372765          -10.14345
     78       2.00000          -0.371943          -10.12108
     79       2.00000          -0.365881           -9.95614
     80       2.00000          -0.351780           -9.57242
     81       2.00000          -0.351663           -9.56924
     82       2.00000          -0.350593           -9.54011
     83       2.00000          -0.347293           -9.45032
     84       2.00000          -0.330038           -8.98079
     85       2.00000          -0.327417           -8.90946
     86       2.00000          -0.326451           -8.88319
     87       2.00000          -0.319608           -8.69698
     88       2.00000          -0.309821           -8.43066
     89       2.00000          -0.303937           -8.27054
     90       2.00000          -0.302204           -8.22339
     91       2.00000          -0.300060           -8.16504
     92       2.00000          -0.298178           -8.11382
     93       2.00000          -0.295969           -8.05373
     94       2.00000          -0.286626           -7.79949
     95       2.00000          -0.281451           -7.65868
     96       2.00000          -0.264957           -7.20984
     97       2.00000          -0.262313           -7.13790
     98       2.00000          -0.242774           -6.60622
     99       2.00000          -0.240400           -6.54161
    100       2.00000          -0.233023           -6.34087
    101       2.00000          -0.223724           -6.08784
    102       2.00000          -0.214935           -5.84869
    103       2.00000          -0.193792           -5.27335
    104       2.00000          -0.182339           -4.96170
    105       0.00000          -0.125591           -3.41750
    106       0.00000          -0.075549           -2.05578
    107       0.00000          -0.071115           -1.93513
    108       0.00000          -0.058976           -1.60483
    109       0.00000          -0.056585           -1.53976
    110       0.00000          -0.032292           -0.87870
    111       0.00000          -0.031207           -0.84918
    112       0.00000          -0.012520           -0.34070
    113       0.00000          -0.007487           -0.20374
    114       0.00000          -0.006405           -0.17428
    115       0.00000          -0.003038           -0.08267
    116       0.00000          -0.001899           -0.05168
    117       0.00000           0.002764            0.07520
    118       0.00000           0.008197            0.22305
    119       0.00000           0.017038            0.46363
    120       0.00000           0.020326            0.55309
    121       0.00000           0.025815            0.70246
    122       0.00000           0.030630            0.83348
    123       0.00000           0.036192            0.98485
    124       0.00000           0.047824            1.30135
    125       0.00000           0.050079            1.36272
    126       0.00000           0.053763            1.46296
    127       0.00000           0.063510            1.72820
    128       0.00000           0.071586            1.94795
    129       0.00000           0.073795            2.00806
    130       0.00000           0.079457            2.16215
    131       0.00000           0.083612            2.27519
    132       0.00000           0.096268            2.61958
    133       0.00000           0.097472            2.65234
    134       0.00000           0.100966            2.74742
    135       0.00000           0.106375            2.89462
    136       0.00000           0.107921            2.93667
    137       0.00000           0.113112            3.07792
    138       0.00000           0.116277            3.16407
    139       0.00000           0.123948            3.37281
    140       0.00000           0.124624            3.39120
    141       0.00000           0.127977            3.48244
    142       0.00000           0.128838            3.50586
    143       0.00000           0.131668            3.58288
    144       0.00000           0.132974            3.61840
    145       0.00000           0.136549            3.71569
    146       0.00000           0.137301            3.73614
    147       0.00000           0.138727            3.77496
    148       0.00000           0.143702            3.91033
    149       0.00000           0.147983            4.02683
    150       0.00000           0.150062            4.08340
    151       0.00000           0.150519            4.09582
    152       0.00000           0.157671            4.29043
    153       0.00000           0.158264            4.30657
    154       0.00000           0.163179            4.44032
    155       0.00000           0.163352            4.44504
    156       0.00000           0.165426            4.50148
    157       0.00000           0.166360            4.52690
    158       0.00000           0.171978            4.67975
    159       0.00000           0.172796            4.70202
    160       0.00000           0.173124            4.71094
    161       0.00000           0.177874            4.84021
    162       0.00000           0.179359            4.88061
    163       0.00000           0.185872            5.05783
    164       0.00000           0.186616            5.07808
    165       0.00000           0.191739            5.21749
    166       0.00000           0.193064            5.25354
    167       0.00000           0.196926            5.35864
    168       0.00000           0.197269            5.36795
    169       0.00000           0.203949            5.54975
    170       0.00000           0.205530            5.59274
    171       0.00000           0.205704            5.59750
    172       0.00000           0.208576            5.67563
    173       0.00000           0.210601            5.73075
    174       0.00000           0.212759            5.78946
    175       0.00000           0.225610            6.13917
    176       0.00000           0.225899            6.14701
    177       0.00000           0.229769            6.25235
    178       0.00000           0.230305            6.26693
    179       0.00000           0.231148            6.28985
    180       0.00000           0.231829            6.30839
    181       0.00000           0.237413            6.46035
    182       0.00000           0.237921            6.47415
    183       0.00000           0.238630            6.49346
    184       0.00000           0.246756            6.71457
    185       0.00000           0.250251            6.80968
    186       0.00000           0.252612            6.87393
    187       0.00000           0.257332            7.00235
    188       0.00000           0.261034            7.10309
    189       0.00000           0.265983            7.23778
    190       0.00000           0.267964            7.29168
    191       0.00000           0.269858            7.34322
    192       0.00000           0.270388            7.35762
    193       0.00000           0.274382            7.46632
    194       0.00000           0.275580            7.49891
    195       0.00000           0.276989            7.53726
    196       0.00000           0.279405            7.60300
    197       0.00000           0.280067            7.62101
    198       0.00000           0.287988            7.83655
    199       0.00000           0.293222            7.97897
    200       0.00000           0.293637            7.99026
    201       0.00000           0.297156            8.08602
    202       0.00000           0.299650            8.15388
    203       0.00000           0.302317            8.22647
    204       0.00000           0.310408            8.44663
    205       0.00000           0.314061            8.54603
    206       0.00000           0.318081            8.65543
    207       0.00000           0.319574            8.69605
    208       0.00000           0.326277            8.87844
    209       0.00000           0.327583            8.91400
    210       0.00000           0.329235            8.95893
    211       0.00000           0.331322            9.01572
    212       0.00000           0.333633            9.07862
    213       0.00000           0.335354            9.12544
    214       0.00000           0.338023            9.19807
    215       0.00000           0.341070            9.28098
    216       0.00000           0.347421            9.45381
    217       0.00000           0.350733            9.54392
    218       0.00000           0.357709            9.73376
    219       0.00000           0.365377            9.94241
    220       0.00000           0.365604            9.94860
    221       0.00000           0.368770           10.03475
    222       0.00000           0.370962           10.09439
    223       0.00000           0.383254           10.42887
    224       0.00000           0.388696           10.57697

  Highest occupied state (VBM) at     -4.96170398 eV
  | Occupation number:      2.00000000

  Lowest unoccupied state (CBM) at    -3.41749930 eV
  | Occupation number:      0.00000000

  Overall HOMO-LUMO gap:      1.54420468 eV.

  Total energy components:
  | Sum of eigenvalues            :        -699.84708131 Ha      -19043.80802063 eV
  | XC energy correction          :        -178.50946944 Ha       -4857.48980974 eV
  | XC potential correction       :         229.31753735 Ha        6240.04768140 eV
  | Free-atom electrostatic energy:        -535.98256471 Ha      -14584.82765372 eV
  | Hartree energy correction     :         -43.58082047 Ha       -1185.89446254 eV
  | Entropy correction            :           0.00000000 Ha           0.00000000 eV
  | ---------------------------
  | Total energy                  :       -1228.60239857 Ha      -33431.97226523 eV
  | Total energy, T -> 0          :       -1228.60239857 Ha      -33431.97226523 eV  <-- do not rely on this value for anything but (periodic) metals
  | Electronic free energy        :       -1228.60239857 Ha      -33431.97226523 eV

  Derived energy quantities:
  | Kinetic energy                :        1225.11499382 Ha       33337.07515363 eV
  | Electrostatic energy          :       -2275.20792296 Ha      -61911.55760912 eV
  | Energy correction for multipole
  | error in Hartree potential    :          -0.13952772 Ha          -3.79674241 eV
  | Sum of eigenvalues per atom                           :        -396.74600043 eV
  | Total energy (T->0) per atom                          :        -696.49942219 eV  <-- do not rely on this value for anything but (periodic) metals
  | Electronic free energy per atom                       :        -696.49942219 eV
  End evaluation of scaled ZORA corrections.
  | Time for scaled ZORA corrections           :        5.082 s           7.629 s
------------------------------------------------------------

  Energy and forces in a compact form:
  | Total energy uncorrected      :         -0.334319722652296E+05 eV
  | Total energy corrected        :         -0.334319722652296E+05 eV  <-- do not rely on this value for anything but (periodic) metals
  | Electronic free energy        :         -0.334319722652296E+05 eV

  ------------------------------------ 
  Start decomposition of the XC Energy 
  ------------------------------------ 
  X and C from original XC functional choice 
  Hartree-Fock Energy :          0.000000000 Ha              0.000000000 eV
  X Energy            :       -171.497818283 Ha          -4666.693074214 eV
  C Energy            :         -7.011651154 Ha           -190.796735523 eV
  Total XC Energy     :       -178.509469437 Ha          -4857.489809736 eV
  ------------------------------------ 
  LDA X and C from self-consistent density 
  X Energy LDA        :       -155.349644176 Ha          -4227.278899611 eV
  C Energy LDA        :        -13.484646388 Ha           -366.935897720 eV
  ------------------------------------ 
  End decomposition of the XC Energy 
  ------------------------------------ 

------------------------------------------------------------

------------------------------------------------------------------------------
  Final output of selected total energy values:

  The following output summarizes some interesting total energy values
  at the end of a run (AFTER all relaxation, molecular dynamics, etc.).

  | Total energy of the DFT / Hartree-Fock s.c.f. calculation      :         -33431.972265230 eV
  | Final zero-broadening corrected energy (caution - metals only) :         -33431.972265230 eV
  | For reference only, the value of 1 Hartree used in FHI-aims is :             27.211384500 eV

  Before relying on these values, please be sure to understand exactly which
  total energy value is referred to by a given number. Different objects may
  all carry the same name 'total energy'. Definitions:

  Total energy of the DFT / Hartree-Fock s.c.f. calculation:
  | Note that this energy does not include ANY quantities calculated after the
  | s.c.f. cycle, in particular not ANY RPA, MP2, etc. many-body perturbation terms.
  | Scalar relativistic effects have been included in the 'scaled ZORA' approximation.

  Final zero-broadening corrected energy:
  | For metallic systems only, a broadening of the occupation numbers at the Fermi
  | level can be extrapolated back to zero broadening by an electron-gas inspired
  | formula. For all systems that are not real metals, this value can be
  | meaningless and should be avoided.

------------------------------------------------------------------------------
  Methods described in the following list of references were used in this FHI-aims run.
  If you publish the results, please make sure to cite these reference if they apply.
  FHI-aims is an academic code, and for our developers (often, Ph.D. students
  and postdocs), scientific credit in the community is essential.
  Thank you for helping us!

  For any use of FHI-aims, please cite:

    Volker Blum, Ralf Gehrke, Felix Hanke, Paula Havu, Ville Havu,
    Xinguo Ren, Karsten Reuter, and Matthias Scheffler
    'Ab initio molecular simulations with numeric atom-centered orbitals'
    Computer Physics Communications 180, 2175-2196 (2009)
    http://dx.doi.org/10.1016/j.cpc.2009.06.022


  The scalable eigensolver library ELPA was used in your run.
  ELPA is essential especially for large systems on hundreds or thousands of CPUs.
  For ELPA, please cite:

    Andreas Marek, Volker Blum, Rainer Johanni, Ville Havu, Bruno Lang,
    Thomas Auckenthaler, Alexander Heinecke, Hans-Joachim Bungartz, and Hermann Lederer,
    'The ELPA Library - Scalable Parallel Eigenvalue Solutions
    for Electronic Structure Theory and Computational Science'
    The Journal of Physics: Condensed Matter 26, 213201 (2014).
    http://dx.doi.org/10.1088/0953-8984/26/21/213201


  The ELSI infrastructure was used in your run to solve the Kohn-Sham electronic structure.
  Please check out http://elsi-interchange.org to learn more.
  If scalability is important for your project, please acknowledge ELSI by citing:

    V. W-z. Yu, F. Corsetti, A. Garcia, W. P. Huhn, M. Jacquelin, W. Jia,
    B. Lange, L. Lin, J. Lu, W. Mi, A. Seifitokaldani, A. Vazquez-Mayagoitia,
    C. Yang, H. Yang, and V. Blum
    'ELSI: A unified software interface for Kohn-Sham electronic structure solvers'
    Computer Physics Communications 222, 267-285 (2018).
    http://dx.doi.org/10.1016/j.cpc.2017.09.007


  For the real-space grid partitioning and parallelization used in this calculation, please cite:

    Ville Havu, Volker Blum, Paula Havu, and Matthias Scheffler,
    'Efficient O(N) integration for all-electron electronic structure calculation'
    'using numerically tabulated basis functions'
    Journal of Computational Physics 228, 8367-8379 (2009).
    http://dx.doi.org/10.1016/j.jcp.2009.08.008

  Of course, there are many other important community references, e.g., those cited in the
  above references. Our list is limited to references that describe implementations in the
  FHI-aims code. The reason is purely practical (length of this list) - please credit others as well.

------------------------------------------------------------
          Leaving FHI-aims.
          Date     :  20210620, Time     :  173937.347

          Computational steps:
          | Number of self-consistency cycles          :           18
          | Number of SCF (re)initializations          :            1

          Detailed time accounting                     :  max(cpu_time)    wall_clock(cpu1)
          | Total time                                 :       98.857 s         103.564 s
          | Preparation time                           :        0.189 s           0.179 s
          | Boundary condition initalization           :        0.001 s           0.004 s
          | Grid partitioning                          :        0.831 s           0.835 s
          | Preloading free-atom quantities on grid    :        0.013 s           0.016 s
          | Free-atom superposition energy             :        0.061 s           0.061 s
          | Total time for integrations                :       57.044 s          57.050 s
          | Total time for solution of K.-S. equations :        2.927 s           2.954 s
          | Total time for density update              :       22.257 s          22.209 s
          | Total time for mixing                      :        0.141 s           0.144 s
          | Total time for Hartree multipole update    :        0.160 s           0.170 s
          | Total time for Hartree multipole sum       :        9.259 s           9.260 s
          | Total time for total energy evaluation     :        0.009 s           0.034 s
          | Total time for scaled ZORA corrections     :        5.082 s           7.629 s

          Partial memory accounting:
          | Residual value for overall tracked memory usage across tasks :     0.000000 MB (should be 0.000000 MB)
          | Peak values for overall tracked memory usage (after allocating zora_vector2):
          |   Minimum:       24.875 MB (on task  8)
          |   Maximum:       31.379 MB (on task 25)
          |   Average:       28.240 MB
          | Largest tracked array allocation (hamiltonian_shell):
          |   Minimum:        6.830 MB (on task  1)
          |   Maximum:        6.830 MB (on task  1)
          |   Average:        6.830 MB
          Note:  These values currently only include a subset of arrays which are explicitly tracked.
          The "true" memory usage will be greater.

          Have a nice day.
------------------------------------------------------------
