  MPI-parallelism will be employed.
------------------------------------------------------------
          Invoking FHI-aims ...
          Version 180607
          Git rev. (modified): 6724847 Fix JSON memory corruption in scf_solver
          Compiled on 2018/06/27 at 16:00:31 on host coe.psc.edu.

          When using FHI-aims, please cite the following reference:

          Volker Blum, Ralf Gehrke, Felix Hanke, Paula Havu,
          Ville Havu, Xinguo Ren, Karsten Reuter, and Matthias Scheffler,
          'Ab Initio Molecular Simulations with Numeric Atom-Centered Orbitals',
          Computer Physics Communications 180, 2175-2196 (2009)

          For any questions about FHI-aims, please visit the aimsclub website
          with its forums and wiki. Contributions to both the forums and the
          wiki are warmly encouraged - they are for you, and everyone is welcome there.

------------------------------------------------------------



  Date     :  20210620, Time     :  171329.393
  Time zero on CPU 1             :   0.351849000000000E+00  s.
  Internal wall clock time zero  :           393441209.393  s.

  FHI-aims created a unique identifier for this run for later identification
  aims_uuid : C95C2D23-B249-48EA-A0F0-A6191257E48B

  Using       56 parallel tasks.
  Task        0 on host d021 reporting.
  Task        1 on host d021 reporting.
  Task        2 on host d021 reporting.
  Task        3 on host d021 reporting.
  Task        4 on host d021 reporting.
  Task        5 on host d021 reporting.
  Task        6 on host d021 reporting.
  Task        7 on host d021 reporting.
  Task        8 on host d021 reporting.
  Task        9 on host d021 reporting.
  Task       10 on host d021 reporting.
  Task       11 on host d021 reporting.
  Task       12 on host d021 reporting.
  Task       13 on host d021 reporting.
  Task       14 on host d021 reporting.
  Task       15 on host d021 reporting.
  Task       16 on host d021 reporting.
  Task       17 on host d021 reporting.
  Task       18 on host d021 reporting.
  Task       19 on host d021 reporting.
  Task       20 on host d021 reporting.
  Task       21 on host d021 reporting.
  Task       22 on host d021 reporting.
  Task       23 on host d021 reporting.
  Task       24 on host d021 reporting.
  Task       25 on host d021 reporting.
  Task       26 on host d021 reporting.
  Task       27 on host d021 reporting.
  Task       28 on host d021 reporting.
  Task       29 on host d021 reporting.
  Task       30 on host d021 reporting.
  Task       31 on host d021 reporting.
  Task       32 on host d021 reporting.
  Task       33 on host d021 reporting.
  Task       34 on host d021 reporting.
  Task       35 on host d021 reporting.
  Task       36 on host d021 reporting.
  Task       37 on host d021 reporting.
  Task       38 on host d021 reporting.
  Task       39 on host d021 reporting.
  Task       40 on host d021 reporting.
  Task       41 on host d021 reporting.
  Task       42 on host d021 reporting.
  Task       43 on host d021 reporting.
  Task       44 on host d021 reporting.
  Task       45 on host d021 reporting.
  Task       46 on host d021 reporting.
  Task       47 on host d021 reporting.
  Task       48 on host d021 reporting.
  Task       49 on host d021 reporting.
  Task       50 on host d021 reporting.
  Task       51 on host d021 reporting.
  Task       52 on host d021 reporting.
  Task       53 on host d021 reporting.
  Task       54 on host d021 reporting.
  Task       55 on host d021 reporting.

  Performing system and environment tests:
  *** Environment variable OMP_NUM_THREADS is not set
  *** For performance reasons you might want to set it to 1
  | Stacksize not measured: no C compiler
  | Checking for scalapack...
  | Testing pdtran()...
  | All pdtran() tests passed.

  Obtaining array dimensions for all initial allocations:
  
  -----------------------------------------------------------------------
  Parsing control.in (first pass over file, find array dimensions only).
  The contents of control.in will be repeated verbatim below
  unless switched off by setting 'verbatim_writeout .false.' .
  in the first line of control.in .
  -----------------------------------------------------------------------
  
  #===============================================================================
  # FHI-aims file: ./Runs/es/control.in
  # Created using the Atomic Simulation Environment (ASE)
  # Mon Jan 13 16:04:38 2020
  #===============================================================================
  xc                                 pbe
  relativistic                       zora scalar 1e-12
  occupation_type                    gaussian 0.0001
  load_balancing                     .true.
  KS_method                          scalapack_fast
  mixer                              pulay
  n_max_pulay                        5
  charge_mix_param                   0.4
  sc_accuracy_etot                   1e-6
  sc_accuracy_eev                    1e-4
  sc_accuracy_rho                    1e-6
  sc_iter_limit                      100
  prodbas_threshold                  1e-4
  basis_threshold                    1e-5
  override_illconditioning           .true.
  use_logsbt                         .true.
  spin                               none
  charge                             0
  #===============================================================================
  
  ################################################################################
  #
  #  FHI-aims code project
  # Volker Blum, Fritz Haber Institute Berlin, 2009
  #
  #  Suggested "tight" defaults for H atom (to be pasted into control.in file)
  #
  ################################################################################
    species        H
  #     global species definitions
      nucleus             1
      mass                1.00794
  #
      l_hartree           6
  #
      cut_pot             4.0  2.0  1.0
      basis_dep_cutoff    1e-4
  #
      radial_base         24 7.0
      radial_multiplier   2
      angular_grids       specified
        division   0.1930   50
        division   0.3175  110
        division   0.4293  194
        division   0.5066  302
        division   0.5626  434
  #      division   0.5922  590
  #      division   0.6227  974
  #      division   0.6868 1202
  #      outer_grid  770
        outer_grid  434
  ################################################################################
  #
  #  Definition of "minimal" basis
  #
  ################################################################################
  #     valence basis states
      valence      1  s   1.
  #     ion occupancy
      ion_occ      1  s   0.5
  ################################################################################
  #
  #  Suggested additional basis functions. For production calculations,
  #  uncomment them one after another (the most important basis functions are
  #  listed first).
  #
  #  Basis constructed for dimers: 0.5 A, 0.7 A, 1.0 A, 1.5 A, 2.5 A
  #
  ################################################################################
  #  "First tier" - improvements: -1014.90 meV to -62.69 meV
       hydro 2 s 2.1
       hydro 2 p 3.5
  #  "Second tier" - improvements: -12.89 meV to -1.83 meV
       hydro 1 s 0.85
       hydro 2 p 3.7
       hydro 2 s 1.2
       hydro 3 d 7
  #  "Third tier" - improvements: -0.25 meV to -0.12 meV
  #     hydro 4 f 11.2
  #     hydro 3 p 4.8
  #     hydro 4 d 9
  #     hydro 3 s 3.2
  ################################################################################
  #
  # For methods that use the localized form of the "resolution of identity" for
  # the two-electron Coulomb operator (RI_method LVL), particularly Hartree-Fock and
  # hybrid density functional calculations, the highest accuracy can be obtained by
  # uncommenting the line beginning with "for_aux"  below, thus adding an extra g radial
  # function to the construction of the product basis set for the expansion.
  # See Ref. New J. Phys. 17, 093020 (2015) for more information, particularly Figs. 1 and 6.
  #
  ################################################################################
  #
  # for_aux hydro 5 g 6.0
  ################################################################################
  #
  #  FHI-aims code project
  # Volker Blum, Fritz Haber Institute Berlin, 2009
  #
  #  Suggested "tight" defaults for C atom (to be pasted into control.in file)
  #
  ################################################################################
    species        C
  #     global species definitions
      nucleus             6
      mass                12.0107
  #
      l_hartree           6
  #
      cut_pot             4.0  2.0  1.0
      basis_dep_cutoff    1e-4
  #
      radial_base         34 7.0
      radial_multiplier   2
      angular_grids specified
        division   0.2187   50
        division   0.4416  110
        division   0.6335  194
        division   0.7727  302
        division   0.8772  434
  #      division   0.9334  590
  #      division   0.9924  770
  #      division   1.0230  974
  #      division   1.5020 1202
  #     outer_grid  974
        outer_grid  434
  ################################################################################
  #
  #  Definition of "minimal" basis
  #
  ################################################################################
  #     valence basis states
      valence      2  s   2.
      valence      2  p   2.
  #     ion occupancy
      ion_occ      2  s   1.
      ion_occ      2  p   1.
  ################################################################################
  #
  #  Suggested additional basis functions. For production calculations,
  #  uncomment them one after another (the most important basis functions are
  #  listed first).
  #
  #  Constructed for dimers: 1.0 A, 1.25 A, 1.5 A, 2.0 A, 3.0 A
  #
  ################################################################################
  #  "First tier" - improvements: -1214.57 meV to -155.61 meV
       hydro 2 p 1.7
       hydro 3 d 6
       hydro 2 s 4.9
  #  "Second tier" - improvements: -67.75 meV to -5.23 meV
       hydro 4 f 9.8
       hydro 3 p 5.2
       hydro 3 s 4.3
       hydro 5 g 14.4
       hydro 3 d 6.2
  #  "Third tier" - improvements: -2.43 meV to -0.60 meV
  #     hydro 2 p 5.6
  #     hydro 2 s 1.4
  #     hydro 3 d 4.9
  #     hydro 4 f 11.2
  #  "Fourth tier" - improvements: -0.39 meV to -0.18 meV
  #     hydro 2 p 2.1
  #     hydro 5 g 16.4
  #     hydro 4 d 13.2
  #     hydro 3 s 13.6
  #     hydro 4 f 17.6
  #  Further basis functions - improvements: -0.08 meV and below
  #     hydro 3 s 2
  #     hydro 3 p 6
  #     hydro 4 d 20
  ################################################################################
  #
  # For methods that use the localized form of the "resolution of identity" for
  # the two-electron Coulomb operator (RI_method LVL), particularly Hartree-Fock and
  # hybrid density functional calculations, the highest accuracy can be obtained by
  # uncommenting the line beginning with "for_aux"  below, thus adding an extra g radial
  # function to the construction of the product basis set for the expansion.
  # See Ref. New J. Phys. 17, 093020 (2015) for more information, particularly Figs. 1 and 6.
  #
  ################################################################################
  #
  # for_aux hydro 5 g 6.0
  
  -----------------------------------------------------------------------
  Completed first pass over input file control.in .
  -----------------------------------------------------------------------
  
  
  -----------------------------------------------------------------------
  Parsing geometry.in (first pass over file, find array dimensions only).
  The contents of geometry.in will be repeated verbatim below
  unless switched off by setting 'verbatim_writeout .false.' .
  in the first line of geometry.in .
  -----------------------------------------------------------------------
  
  #=======================================================
  # FHI-aims file: geometry.in
  # Created using the Atomic Simulation Environment (ASE)
  # Sun Jun 20 15:47:01 2021
  #=======================================================
  atom 19.5793579999999992 20.4976629999999993 55.9845380000000006 H
  atom 19.8144390000000001 20.0113279999999989 56.9296050000000022 C
  atom 19.5434780000000003 18.6636920000000011 57.0901009999999971 C
  atom 20.3548739999999988 20.7330620000000003 57.9553840000000022 C
  atom 19.0797160000000012 18.0988879999999988 56.2808750000000018 H
  atom 19.8285829999999983 18.0403680000000008 58.2717239999999990 C
  atom 20.6511449999999996 20.1238729999999997 59.1951589999999968 C
  atom 20.5488639999999982 21.7996119999999998 57.8425719999999970 H
  atom 19.5793579999999992 16.9872399999999999 58.3775589999999980 H
  atom 20.4032599999999995 18.7405800000000013 59.3556549999999987 C
  atom 21.1841350000000013 20.8637470000000000 60.2744369999999989 C
  atom 20.7188850000000002 18.1387719999999995 60.6117109999999997 C
  atom 21.4670069999999988 20.3076569999999990 61.4956030000000027 C
  atom 21.3533369999999998 21.9257780000000011 60.1020779999999988 H
  atom 20.4710000000000001 16.7521979999999999 60.8373360000000005 C
  atom 21.2183780000000013 18.9066210000000012 61.6816859999999991 C
  atom 22.0424280000000010 21.0791329999999988 62.6027940000000029 C
  atom 20.0244339999999994 16.1545430000000003 60.0490449999999996 H
  atom 20.7010199999999998 16.1710619999999992 62.0329160000000002 C
  atom 21.3895899999999983 18.3144199999999984 62.9796109999999985 C
  atom 22.1667430000000003 20.4915370000000010 63.8821110000000019 C
  atom 22.5553199999999983 22.3781019999999984 62.3911250000000024 C
  atom 20.4189660000000011 15.1332210000000007 62.1789910000000035 H
  atom 21.1766910000000017 16.9117089999999983 63.1494110000000006 C
  atom 21.6769280000000002 19.1232299999999995 64.1030839999999955 C
  atom 22.8582910000000012 21.2002109999999995 64.8799779999999942 C
  atom 22.5094649999999987 22.8204999999999991 61.3976770000000016 H
  atom 23.1642389999999985 23.0719120000000011 63.4029480000000021 C
  atom 21.2928180000000005 16.3383499999999984 64.4403580000000034 C
  atom 21.3955449999999985 18.6006679999999989 65.3847269999999980 C
  atom 23.0766980000000004 20.7138160000000013 65.8264400000000052 H
  atom 23.3235409999999987 22.4766599999999990 64.6613310000000041 C
  atom 23.5743289999999988 24.0663489999999989 63.2247739999999965 H
  atom 21.2295440000000006 17.1871219999999987 65.5522009999999966 C
  atom 21.4357420000000012 14.8973019999999998 64.6613310000000041 C
  atom 21.1417040000000007 19.4234140000000011 66.5268080000000026 C
  atom 23.8619650000000014 23.0053750000000008 65.4463669999999951 H
  atom 20.9161509999999993 16.6482439999999983 66.8594300000000032 C
  atom 21.1454260000000005 14.3545479999999994 65.9150620000000060 C
  atom 21.9813879999999990 14.0494000000000003 63.6727679999999978 C
  atom 20.8074690000000011 18.9033079999999991 67.7293659999999988 C
  atom 21.1277839999999983 20.5029329999999987 66.4053889999999996 H
  atom 20.7568500000000000 15.2318700000000007 67.0152740000000051 C
  atom 20.6987859999999984 17.5041970000000013 67.9480130000000031 C
  atom 21.3464139999999993 12.9831120000000002 66.1313829999999996 C
  atom 22.1607880000000002 12.7018860000000000 63.9076969999999989 C
  atom 22.3236629999999998 14.4763559999999991 62.7353779999999972 H
  atom 20.5505759999999995 19.5901040000000002 68.5320789999999960 H
  atom 20.2856440000000013 14.7485990000000005 68.2015499999999975 C
  atom 20.3042540000000002 16.9656710000000004 69.2250039999999984 C
  atom 21.1585280000000004 12.5684579999999997 67.1176200000000023 H
  atom 21.8243189999999991 12.1634620000000009 65.1381669999999957 C
  atom 22.5940289999999990 12.0734820000000003 63.1312679999999986 H
  atom 20.0812320000000000 13.6860020000000002 68.3197119999999956 H
  atom 20.0571139999999986 15.5788030000000006 69.3250230000000016 C
  atom 20.1509080000000012 17.7473039999999997 70.3833670000000069 C
  atom 21.9736459999999987 11.1010220000000004 65.3277389999999940 H
  atom 19.6149400000000007 15.0321219999999993 70.5485149999999948 C
  atom 19.7548870000000001 17.1776039999999988 71.5673170000000027 C
  atom 20.3335839999999983 18.8178160000000005 70.3496399999999937 H
  atom 19.3877489999999995 13.9659929999999992 70.5864289999999954 H
  atom 19.4742479999999993 15.8221390000000000 71.6557059999999950 C
  atom 19.6377929999999985 17.8084929999999986 72.4460909999999956 H
  atom 19.1341320000000010 15.3960810000000006 72.5998419999999953 H
  
  -----------------------------------------------------------------------
  Completed first pass over input file geometry.in .
  -----------------------------------------------------------------------
  

  Basic array size parameters:
  | Number of species                 :        2
  | Number of atoms                   :       64
  | Max. basis fn. angular momentum   :        4
  | Max. atomic/ionic basis occupied n:        2
  | Max. number of basis fn. types    :        2
  | Max. radial fns per species/type  :        8
  | Max. logarithmic grid size        :     1277
  | Max. radial integration grid size :       69
  | Max. angular integration grid size:      434
  | Max. angular grid division number :        8
  | Radial grid for Hartree potential :     1277
  | Number of spin channels           :        1

------------------------------------------------------------
          Reading file control.in.
------------------------------------------------------------
  XC: Using PBE gradient-corrected functionals.
  Scalar relativistic treatment of kinetic energy: ZORA.
  Threshold value for ZORA:   0.100000E-11
  Occupation type: Gaussian broadening, width =   0.100000E-03 eV.
  Since 'load_balancing .true.' is present in control.in, automatically turning on 'use_local_index .true.'.
  Using load balancing for integrations.
  Kohn-Sham electronic structure solved by the ELSI library.
  Using pulay charge density mixing.
  Pulay mixing - number of memorized iterations:    5
  Charge density mixing - mixing parameter:     0.4000
  Convergence accuracy of total energy:  0.1000E-05
  Convergence accuracy of sum of eigenvalues:  0.1000E-03
  Convergence accuracy of self-consistent charge density:  0.1000E-05
  Maximum number of s.-c. iterations  :   100
  * Ignoring prodbas_threshold
  Threshold for basis singularities:  0.1000E-04
  override_illconditioning: Explicitly overriding any built-in checks for an ill-conditioned overlap matrix.
  *** WARNING: If you use this flag, you should really know what you are doing.
  *** DO NOT keep this flag set by default in all your control.in files.
  Using 1D integrations for auxiliary 2-center integrals.
  Spin treatment: No spin polarisation.
  Charge =   0.000000E+00: Neutral system requested explicitly.
 
  Reading configuration options for species H                   .
  | Found nuclear charge :   1.0000
  | Found atomic mass :    1.00794000000000      amu
  | Found l_max for Hartree potential  :   6
  | Found cutoff potl. onset [A], width [A], scale factor :    4.00000    2.00000    1.00000
  | Threshold for basis-dependent cutoff potential is   0.100000E-03
  | Found data for basic radial integration grid :    24 points, outermost radius =    7.000 A
  | Found multiplier for basic radial grid :   2
  | Found angular grid specification: user-specified.
  | Specified grid contains     6 separate shells.
  | Check grid settings after all constraints further below.
  | Found free-atom valence shell :  1 s   1.000
  | No ionic wave fns used. Skipping ion_occ.
  | Found hydrogenic basis function :  2 s   2.100
  | Found hydrogenic basis function :  2 p   3.500
  | Found hydrogenic basis function :  1 s   0.850
  | Found hydrogenic basis function :  2 p   3.700
  | Found hydrogenic basis function :  2 s   1.200
  | Found hydrogenic basis function :  3 d   7.000
  Species H                   : Missing cutoff potential type.
  Defaulting to exp(1/x)/(1-x)^2 type cutoff potential.
  Species H : No 'logarithmic' tag. Using default grid for free atom:
  | Default logarithmic grid data [bohr] : 0.1000E-03 0.1000E+03 0.1012E+01
  Species H : On-site basis accuracy parameter (for Gram-Schmidt orthonormalisation) not specified.
  Using default value basis_acc =  0.1000000E-03.
  Species H                   : Using default innermost maximum threshold i_radial=  2 for radial functions.
  Species H                   : Default cutoff onset for free atom density etc. : 0.40000000E+01 AA.
  Species H                   : Basic radial grid will be enhanced according to radial_multiplier =   2, to contain    49 grid points.
 
  Reading configuration options for species C                   .
  | Found nuclear charge :   6.0000
  | Found atomic mass :    12.0107000000000      amu
  | Found l_max for Hartree potential  :   6
  | Found cutoff potl. onset [A], width [A], scale factor :    4.00000    2.00000    1.00000
  | Threshold for basis-dependent cutoff potential is   0.100000E-03
  | Found data for basic radial integration grid :    34 points, outermost radius =    7.000 A
  | Found multiplier for basic radial grid :   2
  | Found angular grid specification: user-specified.
  | Specified grid contains     6 separate shells.
  | Check grid settings after all constraints further below.
  | Found free-atom valence shell :  2 s   2.000
  | Found free-atom valence shell :  2 p   2.000
  | No ionic wave fns used. Skipping ion_occ.
  | No ionic wave fns used. Skipping ion_occ.
  | Found hydrogenic basis function :  2 p   1.700
  | Found hydrogenic basis function :  3 d   6.000
  | Found hydrogenic basis function :  2 s   4.900
  | Found hydrogenic basis function :  4 f   9.800
  | Found hydrogenic basis function :  3 p   5.200
  | Found hydrogenic basis function :  3 s   4.300
  | Found hydrogenic basis function :  5 g  14.400
  | Found hydrogenic basis function :  3 d   6.200
  Species C                   : Missing cutoff potential type.
  Defaulting to exp(1/x)/(1-x)^2 type cutoff potential.
  Species C : No 'logarithmic' tag. Using default grid for free atom:
  | Default logarithmic grid data [bohr] : 0.1000E-03 0.1000E+03 0.1012E+01
  Species C : On-site basis accuracy parameter (for Gram-Schmidt orthonormalisation) not specified.
  Using default value basis_acc =  0.1000000E-03.
  Species C                   : Using default innermost maximum threshold i_radial=  2 for radial functions.
  Species C                   : Default cutoff onset for free atom density etc. : 0.40000000E+01 AA.
  Species C                   : Basic radial grid will be enhanced according to radial_multiplier =   2, to contain    69 grid points.
 
  Finished reading input file 'control.in'. Consistency checks are next.
 
  MPI_IN_PLACE appears to work with this MPI implementation.
  | Keeping use_mpi_in_place .true. (see manual).
  Target number of points in a grid batch is not set. Defaulting to  100
  Method for grid partitioning is not set. Defaulting to parallel hash+maxmin partitioning.
  Batch size limit is not set. Defaulting to    200
  By default, will store active basis functions for each batch.
  If in need of memory, prune_basis_once .false. can be used to disable this option.
  communication_type for Hartree potential was not specified.
  Defaulting to calc_hartree .
  Pulay mixer: Number of initial linear mixing iterations not set.
  Defaulting to    0 iterations.
  Work space size for distributed Hartree potential not set.
  Defaulting to   0.200000E+03 MB.
  Algorithm-dependent basis array size parameters:
  | n_max_pulay                         :        5
  Presetting      1001 iterations before the initial mixing cycle
  is restarted anyway using the sc_init_iter criterion / keyword.
  Presetting a factor      1.000 between actual scf density residual
  and density convergence criterion sc_accuracy_rho below which sc_init_iter
  takes no effect.
  Calculation of forces was not defined in control.in. No forces will be calculated.
  Geometry relaxation not requested: no relaxation will be performed.
  No accuracy limit for integral partition fn. given. Defaulting to  0.1000E-14.
  No threshold value for u(r) in integrations given. Defaulting to  0.1000E-05.
  No accuracy for occupation numbers given. Defaulting to  0.1000E-12.
  No threshold value for occupation numbers given. Defaulting to  0.0000E+00.
  No accuracy for fermi level given. Defaulting to  0.1000E-19.
  Maximum # of iterations to find E_F not set. Defaulting to  200.
  Will not use alltoall communication since running on < 1024 CPUs.
  partition_type (choice of integration weights) for integrals was not specified.
  | Using a version of the partition function of Stratmann and coworkers ('stratmann_sparse').
  | At each grid point, the set of atoms used to build the partition table is smoothly restricted to
  | only those atoms whose free-atom density would be non-zero at that grid point.
  Partitioning for Hartree potential was not defined. Using partition_type for integrals.
  | Adjusted default value of keyword multip_moments_threshold to:       0.10000000E-11
  | This value may affect high angular momentum components of the Hartree potential in periodic systems.
  No q(lm)/r^(l+1) cutoff set for long-range Hartree potential.
  | Using default value of  0.100000E-09 .
  | Verify using the multipole_threshold keyword.
  Defaulting to new monopole extrapolation.
  Density update method: automatic selection selected.
 * Warning: use_local_index and/or load_balancing needs packed_matrix_format = index
 * Changing the default setting to packed_matrix_format = index
------------------------------------------------------------


------------------------------------------------------------
          Reading geometry description geometry.in.
------------------------------------------------------------
  Input structure read successfully.
  The structure contains       64 atoms,  and a total of        274.000 electrons.

  Input geometry:
  | No unit cell requested.
  | Atomic structure:
  |       Atom                x [A]            y [A]            z [A]
  |    1: Species H            19.57935800       20.49766300       55.98453800
  |    2: Species C            19.81443900       20.01132800       56.92960500
  |    3: Species C            19.54347800       18.66369200       57.09010100
  |    4: Species C            20.35487400       20.73306200       57.95538400
  |    5: Species H            19.07971600       18.09888800       56.28087500
  |    6: Species C            19.82858300       18.04036800       58.27172400
  |    7: Species C            20.65114500       20.12387300       59.19515900
  |    8: Species H            20.54886400       21.79961200       57.84257200
  |    9: Species H            19.57935800       16.98724000       58.37755900
  |   10: Species C            20.40326000       18.74058000       59.35565500
  |   11: Species C            21.18413500       20.86374700       60.27443700
  |   12: Species C            20.71888500       18.13877200       60.61171100
  |   13: Species C            21.46700700       20.30765700       61.49560300
  |   14: Species H            21.35333700       21.92577800       60.10207800
  |   15: Species C            20.47100000       16.75219800       60.83733600
  |   16: Species C            21.21837800       18.90662100       61.68168600
  |   17: Species C            22.04242800       21.07913300       62.60279400
  |   18: Species H            20.02443400       16.15454300       60.04904500
  |   19: Species C            20.70102000       16.17106200       62.03291600
  |   20: Species C            21.38959000       18.31442000       62.97961100
  |   21: Species C            22.16674300       20.49153700       63.88211100
  |   22: Species C            22.55532000       22.37810200       62.39112500
  |   23: Species H            20.41896600       15.13322100       62.17899100
  |   24: Species C            21.17669100       16.91170900       63.14941100
  |   25: Species C            21.67692800       19.12323000       64.10308400
  |   26: Species C            22.85829100       21.20021100       64.87997800
  |   27: Species H            22.50946500       22.82050000       61.39767700
  |   28: Species C            23.16423900       23.07191200       63.40294800
  |   29: Species C            21.29281800       16.33835000       64.44035800
  |   30: Species C            21.39554500       18.60066800       65.38472700
  |   31: Species H            23.07669800       20.71381600       65.82644000
  |   32: Species C            23.32354100       22.47666000       64.66133100
  |   33: Species H            23.57432900       24.06634900       63.22477400
  |   34: Species C            21.22954400       17.18712200       65.55220100
  |   35: Species C            21.43574200       14.89730200       64.66133100
  |   36: Species C            21.14170400       19.42341400       66.52680800
  |   37: Species H            23.86196500       23.00537500       65.44636700
  |   38: Species C            20.91615100       16.64824400       66.85943000
  |   39: Species C            21.14542600       14.35454800       65.91506200
  |   40: Species C            21.98138800       14.04940000       63.67276800
  |   41: Species C            20.80746900       18.90330800       67.72936600
  |   42: Species H            21.12778400       20.50293300       66.40538900
  |   43: Species C            20.75685000       15.23187000       67.01527400
  |   44: Species C            20.69878600       17.50419700       67.94801300
  |   45: Species C            21.34641400       12.98311200       66.13138300
  |   46: Species C            22.16078800       12.70188600       63.90769700
  |   47: Species H            22.32366300       14.47635600       62.73537800
  |   48: Species H            20.55057600       19.59010400       68.53207900
  |   49: Species C            20.28564400       14.74859900       68.20155000
  |   50: Species C            20.30425400       16.96567100       69.22500400
  |   51: Species H            21.15852800       12.56845800       67.11762000
  |   52: Species C            21.82431900       12.16346200       65.13816700
  |   53: Species H            22.59402900       12.07348200       63.13126800
  |   54: Species H            20.08123200       13.68600200       68.31971200
  |   55: Species C            20.05711400       15.57880300       69.32502300
  |   56: Species C            20.15090800       17.74730400       70.38336700
  |   57: Species H            21.97364600       11.10102200       65.32773900
  |   58: Species C            19.61494000       15.03212200       70.54851500
  |   59: Species C            19.75488700       17.17760400       71.56731700
  |   60: Species H            20.33358400       18.81781600       70.34964000
  |   61: Species H            19.38774900       13.96599300       70.58642900
  |   62: Species C            19.47424800       15.82213900       71.65570600
  |   63: Species H            19.63779300       17.80849300       72.44609100
  |   64: Species H            19.13413200       15.39608100       72.59984200
  |

  | The smallest distance between any two atoms is         1.08535999 AA.
  |
  | The first atom of this pair is atom number                     19 .
  | The second atom of this pair is atom number                    23 .

  Number of empty states per atom not set in control.in - providing a guess from actual geometry.
  | Total number of empty states used during s.c.f. cycle:      159
  If you use a very high smearing, use empty_states (per atom!) in control.in to increase this value.

  Structure-dependent array size parameters: 
  | Maximum number of distinct radial functions  :       18
  | Maximum number of basis functions            :     1968
  | Number of Kohn-Sham states (occupied + empty):      296
------------------------------------------------------------

------------------------------------------------------------
          Preparing all fixed parts of the calculation.
------------------------------------------------------------
  Determining machine precision:
    2.225073858507201E-308
  Setting up grids for atomic and cluster calculations.

  Creating wave function, potential, and density for free atoms.

  Species: H

  List of occupied orbitals and eigenvalues:
    n    l              occ      energy [Ha]    energy [eV]
    1    0           1.0000        -0.238386        -6.4868


  Species: C

  List of occupied orbitals and eigenvalues:
    n    l              occ      energy [Ha]    energy [eV]
    1    0           2.0000       -10.049212      -273.4530
    2    0           2.0000        -0.504761       -13.7352
    2    1           2.0000        -0.193631        -5.2690

  Creating fixed part of basis set: Ionic, confined, hydrogenic.
 
  H                    hydrogenic:
 
  List of hydrogenic basis orbitals: 
    n    l      effective z      eigenvalue [eV]  inner max. [A]     outer max. [A]     outer radius [A]   
    2    0         2.100000       -14.9965           0.193243           1.317208           5.373006
    2    1         3.500000       -41.6672           0.602369           0.602369           4.056063
    1    0         0.850000        -9.8292           0.624871           0.624871           5.373006
    2    1         3.700000       -46.5653           0.573622           0.573622           3.910002
    2    0         1.200000        -4.5995           0.334980           2.228188           5.505995
    3    2         7.000000       -74.0753           0.680699           0.680699           3.769201
 
 
  C                    hydrogenic:
 
  List of hydrogenic basis orbitals: 
    n    l      effective z      eigenvalue [eV]  inner max. [A]     outer max. [A]     outer radius [A]   
    2    1         1.700000        -9.8152           1.245706           1.245706           5.401630
    3    2         6.000000       -54.4226           0.792453           0.792453           4.178599
    2    0         4.900000       -81.6681           0.082559           0.562749           3.353238
    4    3         9.800000       -81.6681           0.863254           0.863254           4.028125
    3    1         5.200000       -40.8774           0.305389           1.215618           4.898362
    3    0         4.300000       -27.9508           0.091041           1.610311           5.401630
    5    4        14.400000      -112.8510           0.917666           0.917666           3.883070
    3    2         6.200000       -58.1113           0.763917           0.763917           4.077671
 

  Adding cutoff potential to free-atom effective potential.
  Creating atomic-like basis functions for current effective potential.

  Species H                   :

  List of atomic basis orbitals and eigenvalues:
    n    l      energy [Ha]    energy [eV]    outer radius [A]
    1    0        -0.238386        -6.4868       5.373006


  Species C                   :

  List of atomic basis orbitals and eigenvalues:
    n    l      energy [Ha]    energy [eV]    outer radius [A]
    1    0       -10.049212      -273.4530       1.934409
    2    0        -0.504761       -13.7352       5.271162
    2    1        -0.193631        -5.2690       5.401630

  Assembling full basis from fixed parts.
  | Species H :   atomic orbital   1 s accepted.
  | Species H :    hydro orbital   2 s accepted.
  | Species H :    hydro orbital   1 s accepted.
  | Species H :    hydro orbital   2 s accepted.
  | Species H :    hydro orbital   2 p accepted.
  | Species H :    hydro orbital   2 p accepted.
  | Species H :    hydro orbital   3 d accepted.
  | Species C :   atomic orbital   1 s accepted.
  | Species C :    hydro orbital   2 s accepted.
  | Species C :   atomic orbital   2 s accepted.
  | Species C :    hydro orbital   3 s accepted.
  | Species C :    hydro orbital   3 p accepted.
  | Species C :   atomic orbital   2 p accepted.
  | Species C :    hydro orbital   2 p accepted.
  | Species C :    hydro orbital   3 d accepted.
  | Species C :    hydro orbital   3 d accepted.
  | Species C :    hydro orbital   4 f accepted.
  | Species C :    hydro orbital   5 g accepted.
 
  Basis size parameters after reduction:
  | Total number of radial functions:       18
  | Total number of basis functions :     1968
 
  Per-task memory consumption for arrays in subroutine allocate_ext:
  |           4.458936MB.
  Testing on-site integration grid accuracy.
  |  Species  Function  <phi|h_atom|phi> (log., in eV)  <phi|h_atom|phi> (rad., in eV)
           1        1                 -6.4870767962                 -6.4871688290
           1        2                 13.5032046589                 13.5028982997
           1        3                 32.8195184817                 32.8119941656
           1        4                 33.8513856511                 33.7670005767 ***
           1        5                 28.8544614965                 28.8544615203
           1        6                 59.6326952547                 59.6327656460
           1        7                 60.2719308513                 60.2719305949
           2        8               -273.4529726040               -273.4529710464
           2        9                -10.7721037319                -10.7721022101
           2       10                 17.6044132601                 17.6044162063
           2       11                 53.7706460658                 53.7706913770
           2       12                 15.0973290362                 15.0973256030
           2       13                  3.8545134692                  3.8545724687
           2       14                 12.1156992592                 12.1182024431
           2       15                 29.4352039302                 29.4352041816
           2       16                 54.8741144708                 54.8740268729
           2       17                 59.3556032049                 59.3556031382
           2       18                 93.4551837154                 93.4551838009
 * Note: Onsite integrals marked "***" above are less accurate than
 * onsite_accuracy_threshold =    0.03000 eV. Usually, this is harmless.
 * When in doubt, tighten the "radial" and/or "radial_multiplier" flags to check.

  Preparing densities etc. for the partition functions (integrals / Hartree potential).

  Preparations completed.
  max(cpu_time)          :      0.189 s.
  Wall clock time (cpu1) :      0.176 s.
------------------------------------------------------------

------------------------------------------------------------
          Begin self-consistency loop: Initialization.

          Date     :  20210620, Time     :  171329.796
------------------------------------------------------------

  Initializing index lists of integration centers etc. from given atomic structure:
  | Number of centers in hartree potential         :        64
  | Number of centers in hartree multipole         :        64
  | Number of centers in electron density summation:        64
  | Number of centers in basis integrals           :        64
  | Number of centers in integrals                 :        64
  | Number of centers in hamiltonian               :        64
  * Using 56 tasks for Scalapack Eigenvalue solver.
  Detailed listing of tasks and assigned k-points:
  (for non-periodic systems, the "k-point" denotes an internal label only)
   Task     0 k-point     1 on d021
   Task     1 k-point     1 on d021
   Task     2 k-point     1 on d021
   Task     3 k-point     1 on d021
   Task     4 k-point     1 on d021
   Task     5 k-point     1 on d021
   Task     6 k-point     1 on d021
   Task     7 k-point     1 on d021
   Task     8 k-point     1 on d021
   Task     9 k-point     1 on d021
   Task    10 k-point     1 on d021
   Task    11 k-point     1 on d021
   Task    12 k-point     1 on d021
   Task    13 k-point     1 on d021
   Task    14 k-point     1 on d021
   Task    15 k-point     1 on d021
   Task    16 k-point     1 on d021
   Task    17 k-point     1 on d021
   Task    18 k-point     1 on d021
   Task    19 k-point     1 on d021
   Task    20 k-point     1 on d021
   Task    21 k-point     1 on d021
   Task    22 k-point     1 on d021
   Task    23 k-point     1 on d021
   Task    24 k-point     1 on d021
   Task    25 k-point     1 on d021
   Task    26 k-point     1 on d021
   Task    27 k-point     1 on d021
   Task    28 k-point     1 on d021
   Task    29 k-point     1 on d021
   Task    30 k-point     1 on d021
   Task    31 k-point     1 on d021
   Task    32 k-point     1 on d021
   Task    33 k-point     1 on d021
   Task    34 k-point     1 on d021
   Task    35 k-point     1 on d021
   Task    36 k-point     1 on d021
   Task    37 k-point     1 on d021
   Task    38 k-point     1 on d021
   Task    39 k-point     1 on d021
   Task    40 k-point     1 on d021
   Task    41 k-point     1 on d021
   Task    42 k-point     1 on d021
   Task    43 k-point     1 on d021
   Task    44 k-point     1 on d021
   Task    45 k-point     1 on d021
   Task    46 k-point     1 on d021
   Task    47 k-point     1 on d021
   Task    48 k-point     1 on d021
   Task    49 k-point     1 on d021
   Task    50 k-point     1 on d021
   Task    51 k-point     1 on d021
   Task    52 k-point     1 on d021
   Task    53 k-point     1 on d021
   Task    54 k-point     1 on d021
   Task    55 k-point     1 on d021
  Tasks:    56 split into      8 X      7 BLACS grid
  Calculating block size based on n_basis =         1968 max_nprow =            8 max_npcol =            7
  ScaLAPACK block size set to:           16
  Allocating        0.590 MB for ovlp
  Allocating        0.590 MB for ham
  Allocating        0.590 MB for eigenvec
  Required Scalapack workspace - INTEGER:            1 REAL:             1
  Partitioning the integration grid into batches with parallel hashing+maxmin method.
  | Number of batches:     9836
  | Maximal batch size:     200
  | Minimal batch size:       1
  | Average batch size:     109.514
  | Standard deviation of batch sizes:      27.012

  Integration load balanced across     56 MPI tasks.
  Work distribution over tasks is as follows:
  Task      0 has      19292 integration points.
  Task      1 has      19299 integration points.
  Task      2 has      19198 integration points.
  Task      3 has      19261 integration points.
  Task      4 has      19257 integration points.
  Task      5 has      19306 integration points.
  Task      6 has      19190 integration points.
  Task      7 has      19280 integration points.
  Task      8 has      19257 integration points.
  Task      9 has      19233 integration points.
  Task     10 has      19338 integration points.
  Task     11 has      19172 integration points.
  Task     12 has      19162 integration points.
  Task     13 has      19152 integration points.
  Task     14 has      19379 integration points.
  Task     15 has      19318 integration points.
  Task     16 has      19155 integration points.
  Task     17 has      19289 integration points.
  Task     18 has      19227 integration points.
  Task     19 has      19228 integration points.
  Task     20 has      19140 integration points.
  Task     21 has      19311 integration points.
  Task     22 has      19288 integration points.
  Task     23 has      19114 integration points.
  Task     24 has      19268 integration points.
  Task     25 has      19163 integration points.
  Task     26 has      19292 integration points.
  Task     27 has      19095 integration points.
  Task     28 has      19316 integration points.
  Task     29 has      19304 integration points.
  Task     30 has      19179 integration points.
  Task     31 has      19353 integration points.
  Task     32 has      19123 integration points.
  Task     33 has      19304 integration points.
  Task     34 has      19168 integration points.
  Task     35 has      19251 integration points.
  Task     36 has      19258 integration points.
  Task     37 has      19223 integration points.
  Task     38 has      19289 integration points.
  Task     39 has      19231 integration points.
  Task     40 has      19252 integration points.
  Task     41 has      19033 integration points.
  Task     42 has      19302 integration points.
  Task     43 has      19304 integration points.
  Task     44 has      19112 integration points.
  Task     45 has      19255 integration points.
  Task     46 has      19235 integration points.
  Task     47 has      19304 integration points.
  Task     48 has      19115 integration points.
  Task     49 has      19243 integration points.
  Task     50 has      19372 integration points.
  Task     51 has      19113 integration points.
  Task     52 has      19318 integration points.
  Task     53 has      19155 integration points.
  Task     54 has      19296 integration points.
  Task     55 has      19104 integration points.
  Initializing partition tables, free-atom densities, potentials, etc. across the integration grid (initialize_grid_storage).
  | initialize_grid_storage: Actual outermost partition radius vs. multipole_radius_free
  | (-- VB: in principle, multipole_radius_free should be larger, hence this output)
  | Species        1: Confinement radius =              6.000000000000000 AA, multipole_radius_free =              6.071692442739658 AA.
  | Species        1: outer_partition_radius set to              6.071692442739658 AA .
  | Species        2: Confinement radius =              6.000000000000000 AA, multipole_radius_free =              6.029870734432609 AA.
  | Species        2: outer_partition_radius set to              6.029870734432609 AA .
  | The sparse table of interatomic distances needs     48.0920 kbyte instead of    32.7680 kbyte of memory.
  | Using the partition_type stratmann_smoother will reduce your memory usage.
  | Net number of integration points:  1077176
  | of which are non-zero points    :   853999
  Renormalizing the initial density to the exact electron count on the 3D integration grid.
  | Initial density: Formal number of electrons (from input files) :     274.0000000000
  | Integrated number of electrons on 3D grid     :     274.0003872001
  | Charge integration error                      :       0.0003872001
  | Normalization factor for density and gradient :       0.9999985869
  Obtaining max. number of non-zero basis functions in each batch (get_n_compute_maxes).
  | Maximal number of non-zero basis functions:     1047
  Selecting the method for density update.
  Loop over occupied states selected for charge density update.
  Hamiltonian matrix size:
  | Size of matrix non-packed:               1937496
  | Size of matrix packed:         1500113
  Allocating        4.660 MB for KS_eigenvector
  use_local_index: Max. local matrix size =      1008369
  Task:     0 matrix size:     259271
  Task:     1 matrix size:     230542
  Task:     2 matrix size:     284519
  Task:     3 matrix size:     520064
  Task:     4 matrix size:     732924
  Task:     5 matrix size:     923093
  Task:     6 matrix size:    1008369
  Task:     7 matrix size:     381689
  Task:     8 matrix size:     148779
  Task:     9 matrix size:     417727
  Task:    10 matrix size:     535547
  Task:    11 matrix size:     808397
  Task:    12 matrix size:     999372
  Task:    13 matrix size:    1001700
  Task:    14 matrix size:     176118
  Task:    15 matrix size:     146608
  Task:    16 matrix size:     191540
  Task:    17 matrix size:     834332
  Task:    18 matrix size:     852264
  Task:    19 matrix size:     627095
  Task:    20 matrix size:     631621
  Task:    21 matrix size:     381350
  Task:    22 matrix size:     612989
  Task:    23 matrix size:     324582
  Task:    24 matrix size:     748246
  Task:    25 matrix size:     644521
  Task:    26 matrix size:     295796
  Task:    27 matrix size:     224767
  Task:    28 matrix size:     440738
  Task:    29 matrix size:     804278
  Task:    30 matrix size:     847873
  Task:    31 matrix size:     302469
  Task:    32 matrix size:     129720
  Task:    33 matrix size:     326679
  Task:    34 matrix size:     125250
  Task:    35 matrix size:     141778
  Task:    36 matrix size:     681354
  Task:    37 matrix size:     685068
  Task:    38 matrix size:     326837
  Task:    39 matrix size:     678299
  Task:    40 matrix size:     567394
  Task:    41 matrix size:     364532
  Task:    42 matrix size:     943547
  Task:    43 matrix size:     892109
  Task:    44 matrix size:     646916
  Task:    45 matrix size:     363482
  Task:    46 matrix size:     165593
  Task:    47 matrix size:     401945
  Task:    48 matrix size:     158163
  Task:    49 matrix size:     897684
  Task:    50 matrix size:     484095
  Task:    51 matrix size:     218336
  Task:    52 matrix size:     861979
  Task:    53 matrix size:     409713
  Task:    54 matrix size:     606645
  Task:    55 matrix size:     446173
  Integrating Hamiltonian matrix: batch-based integration.
  Time summed over all CPUs for integration: real work      215.448 s, elapsed      423.300 s
  Time get_set_sparse_local_matrix_scalapack:     0.020044 s
  Start compute_balanced_batch_distribution
  Done load balancing, time needed:      0.011 s
  Integrating overlap matrix with loadbalancing
  Time summed over all CPUs for integration: real work       60.670 s, elapsed       70.446 s
  Time get_set_full_local_matrix_scalapack:     0.026285 s

  Updating Kohn-Sham eigenvalues and eigenvectors using ELSI and the ELPA eigensolver.
  Overlap matrix is not singular
  | Lowest and highest eigenvalues :  0.12E+02,  0.83E-04
  Finished singularity check of overlap matrix
  | Time :     0.153 s
  Finished Cholesky decomposition
  | Time :     0.032 s
  Finished transformation to standard eigenproblem
  | Time :     0.029 s
  Starting ELPA eigensolver
  Finished solving standard eigenproblem
  | Time :     0.161 s
  Finished back-transformation of eigenvectors
  | Time :     0.007 s

  Obtaining occupation numbers and chemical potential using ELSI.
  | Chemical potential (Fermi level):    -7.84223395 eV
  Writing Kohn-Sham eigenvalues.

  State    Occupation    Eigenvalue [Ha]    Eigenvalue [eV]
      1       2.00000         -10.176024         -276.90371
      2       2.00000         -10.175543         -276.89062
      3       2.00000         -10.174935         -276.87408
      4       2.00000         -10.174410         -276.85977
      5       2.00000         -10.174404         -276.85961
      6       2.00000         -10.174358         -276.85836
      7       2.00000         -10.173445         -276.83353
      8       2.00000         -10.173430         -276.83312
      9       2.00000         -10.173293         -276.82938
     10       2.00000         -10.172498         -276.80775
     11       2.00000         -10.172412         -276.80542
     12       2.00000         -10.172340         -276.80346
     13       2.00000         -10.172170         -276.79884
     14       2.00000         -10.172092         -276.79670
     15       2.00000         -10.171959         -276.79309
     16       2.00000         -10.171922         -276.79208
     17       2.00000         -10.171710         -276.78631
     18       2.00000         -10.171551         -276.78198
     19       2.00000         -10.171345         -276.77639
     20       2.00000         -10.171214         -276.77281
     21       2.00000         -10.171051         -276.76837
     22       2.00000         -10.170586         -276.75573
     23       2.00000         -10.168987         -276.71222
     24       2.00000         -10.168770         -276.70631
     25       2.00000         -10.167232         -276.66445
     26       2.00000         -10.166649         -276.64859
     27       2.00000         -10.166642         -276.64841
     28       2.00000         -10.166252         -276.63780
     29       2.00000         -10.165477         -276.61670
     30       2.00000         -10.165418         -276.61509
     31       2.00000         -10.164967         -276.60284
     32       2.00000         -10.164928         -276.60177
     33       2.00000         -10.164757         -276.59712
     34       2.00000         -10.163874         -276.57308
     35       2.00000         -10.163670         -276.56754
     36       2.00000         -10.163619         -276.56613
     37       2.00000         -10.163380         -276.55964
     38       2.00000         -10.163294         -276.55730
     39       2.00000         -10.163171         -276.55395
     40       2.00000         -10.162535         -276.53663
     41       2.00000         -10.161811         -276.51695
     42       2.00000         -10.161281         -276.50252
     43       2.00000          -1.027157          -27.95036
     44       2.00000          -1.018061          -27.70285
     45       2.00000          -1.004928          -27.34549
     46       2.00000          -1.001157          -27.24287
     47       2.00000          -0.990932          -26.96463
     48       2.00000          -0.983885          -26.77288
     49       2.00000          -0.963171          -26.20922
     50       2.00000          -0.954082          -25.96190
     51       2.00000          -0.944295          -25.69556
     52       2.00000          -0.931380          -25.34414
     53       2.00000          -0.914729          -24.89103
     54       2.00000          -0.904405          -24.61012
     55       2.00000          -0.899210          -24.46876
     56       2.00000          -0.895991          -24.38116
     57       2.00000          -0.889239          -24.19742
     58       2.00000          -0.878587          -23.90758
     59       2.00000          -0.877535          -23.87895
     60       2.00000          -0.867291          -23.60020
     61       2.00000          -0.859480          -23.38765
     62       2.00000          -0.859100          -23.37731
     63       2.00000          -0.837847          -22.79897
     64       2.00000          -0.796704          -21.67941
     65       2.00000          -0.784798          -21.35544
     66       2.00000          -0.783702          -21.32563
     67       2.00000          -0.780267          -21.23216
     68       2.00000          -0.774428          -21.07327
     69       2.00000          -0.761474          -20.72076
     70       2.00000          -0.758463          -20.63882
     71       2.00000          -0.744902          -20.26981
     72       2.00000          -0.740459          -20.14893
     73       2.00000          -0.735569          -20.01585
     74       2.00000          -0.730881          -19.88830
     75       2.00000          -0.708393          -19.27635
     76       2.00000          -0.693530          -18.87190
     77       2.00000          -0.686168          -18.67159
     78       2.00000          -0.684845          -18.63559
     79       2.00000          -0.677263          -18.42928
     80       2.00000          -0.673156          -18.31750
     81       2.00000          -0.660174          -17.96424
     82       2.00000          -0.652503          -17.75550
     83       2.00000          -0.641999          -17.46968
     84       2.00000          -0.639490          -17.40140
     85       2.00000          -0.632074          -17.19962
     86       2.00000          -0.630770          -17.16413
     87       2.00000          -0.621845          -16.92127
     88       2.00000          -0.619892          -16.86812
     89       2.00000          -0.615491          -16.74837
     90       2.00000          -0.604973          -16.46216
     91       2.00000          -0.602906          -16.40592
     92       2.00000          -0.602079          -16.38340
     93       2.00000          -0.590450          -16.06695
     94       2.00000          -0.588921          -16.02536
     95       2.00000          -0.581879          -15.83373
     96       2.00000          -0.579951          -15.78126
     97       2.00000          -0.578284          -15.73591
     98       2.00000          -0.576071          -15.67569
     99       2.00000          -0.571763          -15.55845
    100       2.00000          -0.568131          -15.45962
    101       2.00000          -0.566160          -15.40601
    102       2.00000          -0.564803          -15.36907
    103       2.00000          -0.553846          -15.07092
    104       2.00000          -0.543488          -14.78907
    105       2.00000          -0.540641          -14.71158
    106       2.00000          -0.538156          -14.64396
    107       2.00000          -0.534965          -14.55713
    108       2.00000          -0.531235          -14.45563
    109       2.00000          -0.523573          -14.24714
    110       2.00000          -0.521495          -14.19061
    111       2.00000          -0.516796          -14.06274
    112       2.00000          -0.514462          -13.99923
    113       2.00000          -0.512672          -13.95050
    114       2.00000          -0.511778          -13.92618
    115       2.00000          -0.505666          -13.75987
    116       2.00000          -0.505111          -13.74477
    117       2.00000          -0.499091          -13.58097
    118       2.00000          -0.498422          -13.56275
    119       2.00000          -0.491078          -13.36291
    120       2.00000          -0.489558          -13.32155
    121       2.00000          -0.483952          -13.16900
    122       2.00000          -0.474618          -12.91500
    123       2.00000          -0.468963          -12.76113
    124       2.00000          -0.464065          -12.62785
    125       2.00000          -0.452033          -12.30045
    126       2.00000          -0.440949          -11.99884
    127       2.00000          -0.427674          -11.63760
    128       2.00000          -0.418137          -11.37808
    129       2.00000          -0.413901          -11.26283
    130       2.00000          -0.413110          -11.24130
    131       2.00000          -0.399091          -10.85981
    132       2.00000          -0.396089          -10.77812
    133       2.00000          -0.391031          -10.64049
    134       2.00000          -0.382157          -10.39902
    135       2.00000          -0.369645          -10.05856
    136       2.00000          -0.366461           -9.97190
    137       2.00000          -0.338528           -9.21182
    138       0.00000          -0.274535           -7.47049
    139       0.00000          -0.248905           -6.77306
    140       0.00000          -0.242151           -6.58927
    141       0.00000          -0.237004           -6.44922
    142       0.00000          -0.220714           -6.00593
    143       0.00000          -0.216283           -5.88537
    144       0.00000          -0.208776           -5.68108
    145       0.00000          -0.200248           -5.44902
    146       0.00000          -0.198993           -5.41487
    147       0.00000          -0.191843           -5.22032
    148       0.00000          -0.175770           -4.78294
    149       0.00000          -0.161420           -4.39245
    150       0.00000          -0.143660           -3.90920
    151       0.00000          -0.132381           -3.60226
    152       0.00000          -0.118866           -3.23451
    153       0.00000          -0.082460           -2.24386
    154       0.00000          -0.076465           -2.08072
    155       0.00000          -0.073395           -1.99719
    156       0.00000          -0.069879           -1.90150
    157       0.00000          -0.068250           -1.85717
    158       0.00000          -0.065387           -1.77928
    159       0.00000          -0.063881           -1.73828
    160       0.00000          -0.056556           -1.53898
    161       0.00000          -0.052631           -1.43217
    162       0.00000          -0.048537           -1.32076
    163       0.00000          -0.046647           -1.26932
    164       0.00000          -0.043283           -1.17780
    165       0.00000          -0.032787           -0.89218
    166       0.00000          -0.027497           -0.74822
    167       0.00000          -0.026125           -0.71089
    168       0.00000          -0.021397           -0.58225
    169       0.00000          -0.019307           -0.52538
    170       0.00000          -0.017924           -0.48774
    171       0.00000          -0.016894           -0.45971
    172       0.00000          -0.015024           -0.40881
    173       0.00000          -0.012335           -0.33565
    174       0.00000          -0.010263           -0.27928
    175       0.00000          -0.007704           -0.20965
    176       0.00000          -0.003064           -0.08337
    177       0.00000          -0.000306           -0.00833
    178       0.00000           0.003861            0.10507
    179       0.00000           0.004385            0.11933
    180       0.00000           0.005740            0.15620
    181       0.00000           0.010770            0.29306
    182       0.00000           0.011043            0.30049
    183       0.00000           0.014121            0.38425
    184       0.00000           0.014531            0.39542
    185       0.00000           0.022556            0.61377
    186       0.00000           0.024663            0.67112
    187       0.00000           0.025871            0.70399
    188       0.00000           0.026661            0.72549
    189       0.00000           0.029100            0.79186
    190       0.00000           0.031150            0.84763
    191       0.00000           0.032378            0.88106
    192       0.00000           0.037102            1.00958
    193       0.00000           0.040218            1.09439
    194       0.00000           0.040386            1.09895
    195       0.00000           0.047095            1.28152
    196       0.00000           0.048209            1.31182
    197       0.00000           0.049459            1.34584
    198       0.00000           0.051328            1.39672
    199       0.00000           0.054983            1.49615
    200       0.00000           0.055909            1.52137
    201       0.00000           0.058102            1.58103
    202       0.00000           0.059740            1.62560
    203       0.00000           0.059902            1.63001
    204       0.00000           0.065456            1.78115
    205       0.00000           0.067685            1.84179
    206       0.00000           0.068691            1.86918
    207       0.00000           0.069591            1.89366
    208       0.00000           0.071108            1.93494
    209       0.00000           0.073204            1.99198
    210       0.00000           0.074986            2.04046
    211       0.00000           0.079410            2.16086
    212       0.00000           0.079953            2.17563
    213       0.00000           0.081757            2.22471
    214       0.00000           0.084942            2.31138
    215       0.00000           0.087223            2.37346
    216       0.00000           0.088941            2.42022
    217       0.00000           0.090852            2.47221
    218       0.00000           0.093888            2.55484
    219       0.00000           0.095632            2.60228
    220       0.00000           0.096842            2.63522
    221       0.00000           0.100947            2.74690
    222       0.00000           0.104188            2.83509
    223       0.00000           0.104472            2.84283
    224       0.00000           0.112006            3.04784
    225       0.00000           0.112673            3.06600
    226       0.00000           0.113780            3.09611
    227       0.00000           0.116651            3.17424
    228       0.00000           0.117915            3.20863
    229       0.00000           0.121840            3.31543
    230       0.00000           0.123712            3.36638
    231       0.00000           0.124206            3.37981
    232       0.00000           0.126177            3.43344
    233       0.00000           0.127509            3.46971
    234       0.00000           0.128365            3.49299
    235       0.00000           0.129424            3.52181
    236       0.00000           0.132348            3.60136
    237       0.00000           0.133325            3.62796
    238       0.00000           0.137530            3.74239
    239       0.00000           0.138882            3.77917
    240       0.00000           0.142742            3.88421
    241       0.00000           0.144127            3.92189
    242       0.00000           0.146224            3.97895
    243       0.00000           0.151567            4.12435
    244       0.00000           0.154558            4.20575
    245       0.00000           0.155312            4.22626
    246       0.00000           0.159415            4.33790
    247       0.00000           0.161716            4.40052
    248       0.00000           0.164537            4.47727
    249       0.00000           0.166076            4.51915
    250       0.00000           0.168421            4.58298
    251       0.00000           0.168943            4.59718
    252       0.00000           0.173574            4.72319
    253       0.00000           0.175134            4.76563
    254       0.00000           0.176881            4.81318
    255       0.00000           0.177158            4.82071
    256       0.00000           0.178165            4.84811
    257       0.00000           0.179295            4.87887
    258       0.00000           0.182904            4.97706
    259       0.00000           0.183628            4.99678
    260       0.00000           0.185366            5.04407
    261       0.00000           0.189329            5.15189
    262       0.00000           0.192903            5.24917
    263       0.00000           0.194301            5.28719
    264       0.00000           0.196732            5.35334
    265       0.00000           0.198664            5.40592
    266       0.00000           0.199563            5.43039
    267       0.00000           0.202037            5.49771
    268       0.00000           0.204327            5.56001
    269       0.00000           0.206079            5.60771
    270       0.00000           0.209322            5.69593
    271       0.00000           0.211794            5.76320
    272       0.00000           0.216657            5.89555
    273       0.00000           0.217418            5.91623
    274       0.00000           0.219054            5.96075
    275       0.00000           0.225069            6.12443
    276       0.00000           0.227508            6.19081
    277       0.00000           0.228146            6.20818
    278       0.00000           0.232485            6.32624
    279       0.00000           0.233952            6.36616
    280       0.00000           0.236717            6.44141
    281       0.00000           0.239013            6.50388
    282       0.00000           0.240500            6.54434
    283       0.00000           0.242792            6.60671
    284       0.00000           0.248431            6.76015
    285       0.00000           0.251898            6.85449
    286       0.00000           0.253671            6.90274
    287       0.00000           0.254111            6.91471
    288       0.00000           0.257798            7.01504
    289       0.00000           0.260093            7.07750
    290       0.00000           0.262366            7.13933
    291       0.00000           0.266106            7.24111
    292       0.00000           0.272748            7.42186
    293       0.00000           0.277404            7.54856
    294       0.00000           0.279031            7.59283
    295       0.00000           0.281270            7.65374
    296       0.00000           0.283826            7.72331

  Highest occupied state (VBM) at     -9.21181881 eV
  | Occupation number:      2.00000000

  Lowest unoccupied state (CBM) at    -7.47048578 eV
  | Occupation number:      0.00000000

  Overall HOMO-LUMO gap:      1.74133304 eV.
  Calculating total energy contributions from superposition of free atom densities.

  Total energy components:
  | Sum of eigenvalues            :        -977.67983740 Ha      -26604.02197343 eV
  | XC energy correction          :        -230.75275236 Ha       -6279.10186901 eV
  | XC potential correction       :         296.41121499 Ha        8065.75954108 eV
  | Free-atom electrostatic energy:        -703.01854300 Ha      -19130.10788418 eV
  | Hartree energy correction     :           0.00000000 Ha           0.00000000 eV
  | Entropy correction            :           0.00000000 Ha           0.00000000 eV
  | ---------------------------
  | Total energy                  :       -1615.03991778 Ha      -43947.47218553 eV
  | Total energy, T -> 0          :       -1615.03991778 Ha      -43947.47218553 eV  <-- do not rely on this value for anything but (periodic) metals
  | Electronic free energy        :       -1615.03991778 Ha      -43947.47218553 eV

  Derived energy quantities:
  | Kinetic energy                :        1601.27034804 Ha       43572.78312899 eV
  | Electrostatic energy          :       -2985.55751346 Ha      -81241.15344552 eV
  | Energy correction for multipole
  | error in Hartree potential    :           0.00000000 Ha           0.00000000 eV
  | Sum of eigenvalues per atom                           :        -415.68784333 eV
  | Total energy (T->0) per atom                          :        -686.67925290 eV  <-- do not rely on this value for anything but (periodic) metals
  | Electronic free energy per atom                       :        -686.67925290 eV
  Initialize hartree_potential_storage
  Max. number of atoms included in rho_multipole:           64

  End scf initialization - timings             :  max(cpu_time)    wall_clock(cpu1)
  | Time for scf. initialization               :       11.607 s          11.662 s
  | Boundary condition initialization          :        0.001 s           0.004 s
  | Integration                                :        8.898 s           8.902 s
  | Solution of K.-S. eqns.                    :        0.414 s           0.428 s
  | Grid partitioning                          :        1.051 s           1.054 s
  | Preloading free-atom quantities on grid    :        0.014 s           0.016 s
  | Free-atom superposition energy             :        0.096 s           0.096 s
  | Total energy evaluation                    :        0.001 s           0.003 s

  Partial memory accounting:
  | Current value for overall tracked memory usage on task 0  :           7.468 MB
  | Peak value for overall tracked memory usage on task 0     :          33.413 MB after allocating zora_vector2
  | Largest tracked array allocation on task 0 so far         :           8.770 MB  when allocating hamiltonian_shell
  Note:  These values currently only include a subset of arrays which are explicitly tracked.
  The "true" memory usage will be greater.
------------------------------------------------------------

------------------------------------------------------------
          Begin self-consistency iteration #    1

  Date     :  20210620, Time     :  171341.461
------------------------------------------------------------
  Evaluating new KS density.
  Integration grid: deviation in total charge (<rho> - N_e) =  -1.136868E-13
  Pulay mixing of updated and previous charge densities.

  Evaluating partitioned Hartree potential by multipole expansion.
  | Analytical far-field extrapolation by fixed multipoles:
  | Hartree multipole sum: apparent total charge =   0.375184E-03
  Summing up the Hartree potential with load balancing.
  Time summed over all CPUs for potential: real work       41.894 s, elapsed       74.479 s
  | RMS charge density error from multipole expansion :   0.158440E-01

  Start compute_balanced_batch_distribution
  Done load balancing, time needed:      0.009 s
  Integrating Hamiltonian matrix: batch-based integration with load balancing
  Time summed over all CPUs for integration: real work      237.476 s, elapsed      266.128 s
  Time get_set_full_local_matrix_scalapack:     0.023702 s
  Start compute_balanced_batch_distribution
  Done load balancing, time needed:      0.010 s

  Updating Kohn-Sham eigenvalues and eigenvectors using ELSI and the ELPA eigensolver.
  Finished transformation to standard eigenproblem
  | Time :     0.032 s
  Starting ELPA eigensolver
  Finished solving standard eigenproblem
  | Time :     0.160 s
  Finished back-transformation of eigenvectors
  | Time :     0.007 s

  Obtaining occupation numbers and chemical potential using ELSI.
  | Chemical potential (Fermi level):    -5.70186764 eV
  Writing Kohn-Sham eigenvalues.

  State    Occupation    Eigenvalue [Ha]    Eigenvalue [eV]
      1       2.00000          -9.998962         -272.08560
      2       2.00000          -9.994389         -271.96117
      3       2.00000          -9.992410         -271.90732
      4       2.00000          -9.991213         -271.87473
      5       2.00000          -9.989756         -271.83509
      6       2.00000          -9.989242         -271.82109
      7       2.00000          -9.988649         -271.80498
      8       2.00000          -9.988311         -271.79577
      9       2.00000          -9.988219         -271.79328
     10       2.00000          -9.987159         -271.76442
     11       2.00000          -9.986657         -271.75077
     12       2.00000          -9.984420         -271.68990
     13       2.00000          -9.984006         -271.67864
     14       2.00000          -9.981737         -271.61688
     15       2.00000          -9.981622         -271.61375
     16       2.00000          -9.979641         -271.55985
     17       2.00000          -9.975329         -271.44250
     18       2.00000          -9.974761         -271.42705
     19       2.00000          -9.969799         -271.29204
     20       2.00000          -9.969124         -271.27366
     21       2.00000          -9.958597         -270.98722
     22       2.00000          -9.956791         -270.93806
     23       2.00000          -9.955100         -270.89207
     24       2.00000          -9.953178         -270.83974
     25       2.00000          -9.953164         -270.83936
     26       2.00000          -9.952635         -270.82497
     27       2.00000          -9.952417         -270.81905
     28       2.00000          -9.951933         -270.80588
     29       2.00000          -9.951221         -270.78649
     30       2.00000          -9.950122         -270.75659
     31       2.00000          -9.949349         -270.73557
     32       2.00000          -9.949125         -270.72946
     33       2.00000          -9.949024         -270.72671
     34       2.00000          -9.948690         -270.71763
     35       2.00000          -9.946873         -270.66819
     36       2.00000          -9.946079         -270.64659
     37       2.00000          -9.944643         -270.60752
     38       2.00000          -9.943850         -270.58592
     39       2.00000          -9.942101         -270.53833
     40       2.00000          -9.941659         -270.52630
     41       2.00000          -9.940965         -270.50743
     42       2.00000          -9.940119         -270.48441
     43       2.00000          -0.893914          -24.32464
     44       2.00000          -0.877760          -23.88506
     45       2.00000          -0.857623          -23.33712
     46       2.00000          -0.854609          -23.25510
     47       2.00000          -0.844279          -22.97401
     48       2.00000          -0.835168          -22.72606
     49       2.00000          -0.816116          -22.20764
     50       2.00000          -0.807044          -21.96078
     51       2.00000          -0.800284          -21.77683
     52       2.00000          -0.793412          -21.58984
     53       2.00000          -0.773479          -21.04743
     54       2.00000          -0.759672          -20.67174
     55       2.00000          -0.752926          -20.48817
     56       2.00000          -0.750214          -20.41436
     57       2.00000          -0.747064          -20.32863
     58       2.00000          -0.736656          -20.04542
     59       2.00000          -0.733916          -19.97086
     60       2.00000          -0.720858          -19.61554
     61       2.00000          -0.714476          -19.44187
     62       2.00000          -0.711949          -19.37312
     63       2.00000          -0.694772          -18.90571
     64       2.00000          -0.655894          -17.84779
     65       2.00000          -0.649150          -17.66426
     66       2.00000          -0.645336          -17.56049
     67       2.00000          -0.641314          -17.45103
     68       2.00000          -0.636093          -17.30898
     69       2.00000          -0.626610          -17.05094
     70       2.00000          -0.615987          -16.76185
     71       2.00000          -0.605919          -16.48788
     72       2.00000          -0.602173          -16.38596
     73       2.00000          -0.593679          -16.15484
     74       2.00000          -0.593375          -16.14657
     75       2.00000          -0.568569          -15.47156
     76       2.00000          -0.560968          -15.26472
     77       2.00000          -0.554807          -15.09706
     78       2.00000          -0.551427          -15.00509
     79       2.00000          -0.542123          -14.75192
     80       2.00000          -0.538774          -14.66079
     81       2.00000          -0.522791          -14.22588
     82       2.00000          -0.518442          -14.10752
     83       2.00000          -0.506126          -13.77239
     84       2.00000          -0.500843          -13.62864
     85       2.00000          -0.495132          -13.47323
     86       2.00000          -0.494288          -13.45026
     87       2.00000          -0.483543          -13.15788
     88       2.00000          -0.482849          -13.13899
     89       2.00000          -0.478297          -13.01513
     90       2.00000          -0.469843          -12.78509
     91       2.00000          -0.465264          -12.66049
     92       2.00000          -0.462132          -12.57524
     93       2.00000          -0.460604          -12.53367
     94       2.00000          -0.453461          -12.33930
     95       2.00000          -0.447397          -12.17429
     96       2.00000          -0.445315          -12.11763
     97       2.00000          -0.441432          -12.01197
     98       2.00000          -0.440349          -11.98250
     99       2.00000          -0.439818          -11.96807
    100       2.00000          -0.436610          -11.88076
    101       2.00000          -0.434060          -11.81138
    102       2.00000          -0.432106          -11.75821
    103       2.00000          -0.421850          -11.47912
    104       2.00000          -0.418973          -11.40084
    105       2.00000          -0.417195          -11.35244
    106       2.00000          -0.410199          -11.16207
    107       2.00000          -0.407657          -11.09292
    108       2.00000          -0.402696          -10.95791
    109       2.00000          -0.396763          -10.79648
    110       2.00000          -0.394681          -10.73981
    111       2.00000          -0.390418          -10.62380
    112       2.00000          -0.388343          -10.56735
    113       2.00000          -0.383136          -10.42566
[...]
    126       2.00000          -0.270118           -7.35029
    127       2.00000          -0.263882           -7.18059
    128       2.00000          -0.251983           -6.85681
    129       2.00000          -0.248114           -6.75153
    130       2.00000          -0.247084           -6.72349
    131       2.00000          -0.233155           -6.34447
    132       2.00000          -0.231522           -6.30002
    133       2.00000          -0.224904           -6.11996
    134       2.00000          -0.214387           -5.83376
    135       2.00000          -0.203332           -5.53294
    136       2.00000          -0.197924           -5.38579
    137       2.00000          -0.171386           -4.66364
    138       0.00000          -0.108445           -2.95094
    139       0.00000          -0.083641           -2.27600
    140       0.00000          -0.077049           -2.09662
    141       0.00000          -0.074164           -2.01810
    142       0.00000          -0.055625           -1.51363
    143       0.00000          -0.055132           -1.50021
    144       0.00000          -0.044637           -1.21462
    145       0.00000          -0.035696           -0.97133
    146       0.00000          -0.034964           -0.95141
    147       0.00000          -0.026469           -0.72025
    148       0.00000          -0.009272           -0.25231
    149       0.00000          -0.007955           -0.21645
    150       0.00000          -0.004721           -0.12846
    151       0.00000          -0.004231           -0.11513
    152       0.00000           0.001957            0.05325
    153       0.00000           0.002673            0.07273
    154       0.00000           0.004779            0.13004
    155       0.00000           0.013000            0.35376
    156       0.00000           0.013861            0.37718
    157       0.00000           0.021025            0.57212
    158       0.00000           0.022714            0.61808
    159       0.00000           0.026695            0.72642
    160       0.00000           0.032020            0.87130
    161       0.00000           0.037645            1.02438
    162       0.00000           0.037743            1.02704
    163       0.00000           0.043941            1.19571
    164       0.00000           0.047203            1.28445
    165       0.00000           0.048802            1.32797
    166       0.00000           0.055767            1.51750
    167       0.00000           0.056862            1.54730
    168       0.00000           0.063448            1.72651
    169       0.00000           0.068171            1.85504
    170       0.00000           0.070339            1.91402
    171       0.00000           0.080980            2.20358
    172       0.00000           0.083026            2.25924
    173       0.00000           0.084917            2.31071
    174       0.00000           0.086117            2.34335
    175       0.00000           0.090623            2.46597
    176       0.00000           0.093696            2.54960
    177       0.00000           0.096431            2.62403
    178       0.00000           0.097698            2.65850
    179       0.00000           0.107494            2.92505
    180       0.00000           0.110141            2.99710
    181       0.00000           0.114901            3.12661
    182       0.00000           0.117218            3.18966
    183       0.00000           0.120209            3.27106
    184       0.00000           0.121047            3.29384
    185       0.00000           0.123171            3.35167
    186       0.00000           0.125248            3.40818
    187       0.00000           0.127170            3.46047
    188       0.00000           0.128720            3.50266
    189       0.00000           0.129598            3.52653
    190       0.00000           0.137081            3.73016
    191       0.00000           0.144604            3.93488
    192       0.00000           0.144861            3.94187
    193       0.00000           0.149687            4.07320
    194       0.00000           0.153450            4.17560
    195       0.00000           0.154604            4.20700
    196       0.00000           0.156144            4.24888
    197       0.00000           0.158250            4.30620
    198       0.00000           0.160182            4.35878
    199       0.00000           0.162571            4.42378
    200       0.00000           0.164754            4.48319
    201       0.00000           0.164844            4.48562
    202       0.00000           0.169162            4.60313
    203       0.00000           0.172048            4.68166
    204       0.00000           0.173989            4.73449
    205       0.00000           0.174125            4.73817
    206       0.00000           0.175290            4.76988
    207       0.00000           0.176496            4.80271
    208       0.00000           0.179289            4.87869
    209       0.00000           0.182979            4.97913
    210       0.00000           0.185106            5.03698
    211       0.00000           0.185691            5.05290
    212       0.00000           0.187877            5.11240
    213       0.00000           0.190128            5.17364
    214       0.00000           0.194150            5.28308
    215       0.00000           0.195580            5.32200
    216       0.00000           0.196971            5.35986
    217       0.00000           0.199489            5.42838
    218       0.00000           0.200771            5.46327
    219       0.00000           0.201731            5.48939
    220       0.00000           0.204042            5.55226
    221       0.00000           0.205048            5.57963
    222       0.00000           0.206774            5.62660
    223       0.00000           0.210026            5.71509
    224       0.00000           0.211896            5.76598
    225       0.00000           0.213487            5.80927
    226       0.00000           0.218366            5.94204
    227       0.00000           0.219532            5.97376
    228       0.00000           0.222101            6.04366
    229       0.00000           0.222867            6.06451
    230       0.00000           0.226530            6.16419
    231       0.00000           0.229104            6.23423
    232       0.00000           0.233760            6.36094
    233       0.00000           0.234461            6.38000
    234       0.00000           0.237745            6.46936
    235       0.00000           0.238935            6.50176
    236       0.00000           0.242270            6.59249
    237       0.00000           0.243568            6.62783
    238       0.00000           0.244637            6.65690
    239       0.00000           0.247252            6.72807
    240       0.00000           0.249236            6.78205
    241       0.00000           0.250450            6.81510
    242       0.00000           0.253243            6.89109
    243       0.00000           0.255560            6.95413
    244       0.00000           0.257085            6.99564
    245       0.00000           0.261590            7.11823
    246       0.00000           0.263558            7.17177
    247       0.00000           0.264144            7.18772
    248       0.00000           0.265506            7.22477
    249       0.00000           0.269057            7.32143
    250       0.00000           0.270522            7.36128
    251       0.00000           0.272347            7.41093
    252       0.00000           0.273655            7.44654
    253       0.00000           0.274266            7.46317
    254       0.00000           0.278298            7.57288
    255       0.00000           0.280904            7.64379
    256       0.00000           0.283036            7.70180
    257       0.00000           0.285940            7.78081
    258       0.00000           0.287350            7.81920
    259       0.00000           0.290994            7.91835
    260       0.00000           0.296678            8.07302
    261       0.00000           0.296871            8.07827
    262       0.00000           0.300281            8.17106
    263       0.00000           0.302217            8.22373
    264       0.00000           0.308514            8.39510
    265       0.00000           0.309391            8.41897
    266       0.00000           0.313381            8.52752
    267       0.00000           0.315327            8.58049
    268       0.00000           0.317639            8.64339
    269       0.00000           0.324137            8.82021
    270       0.00000           0.325158            8.84799
    271       0.00000           0.326588            8.88690
    272       0.00000           0.329168            8.95710
    273       0.00000           0.331038            9.00800
    274       0.00000           0.332758            9.05481
    275       0.00000           0.335515            9.12983
    276       0.00000           0.337801            9.19203
    277       0.00000           0.342445            9.31839
    278       0.00000           0.344508            9.37454
    279       0.00000           0.345448            9.40013
    280       0.00000           0.349921            9.52184
    281       0.00000           0.350582            9.53982
    282       0.00000           0.352733            9.59835
    283       0.00000           0.355772            9.68106
    284       0.00000           0.357935            9.73990
    285       0.00000           0.360967            9.82241
    286       0.00000           0.364446            9.91708
    287       0.00000           0.364842            9.92787
    288       0.00000           0.367459            9.99906
    289       0.00000           0.371281           10.10308
    290       0.00000           0.373854           10.17308
    291       0.00000           0.376637           10.24882
    292       0.00000           0.379577           10.32881
    293       0.00000           0.384509           10.46303
    294       0.00000           0.386152           10.50773
    295       0.00000           0.390415           10.62372
    296       0.00000           0.391976           10.66621

  Highest occupied state (VBM) at     -4.66363923 eV
  | Occupation number:      2.00000000

  Lowest unoccupied state (CBM) at    -2.95094133 eV
  | Occupation number:      0.00000000

  Overall HOMO-LUMO gap:      1.71269789 eV.

  Total energy components:
  | Sum of eigenvalues            :        -918.89907176 Ha      -25004.51595834 eV
  | XC energy correction          :        -234.81981005 Ha       -6389.77213958 eV
  | XC potential correction       :         301.66654487 Ha        8208.76434336 eV
  | Free-atom electrostatic energy:        -703.01854300 Ha      -19130.10788418 eV
  | Hartree energy correction     :         -58.07575139 Ha       -1580.32160122 eV
  | Entropy correction            :           0.00000000 Ha           0.00000000 eV
  | ---------------------------
  | Total energy                  :       -1613.14663133 Ha      -43895.95323996 eV
  | Total energy, T -> 0          :       -1613.14663133 Ha      -43895.95323996 eV  <-- do not rely on this value for anything but (periodic) metals
  | Electronic free energy        :       -1613.14663133 Ha      -43895.95323996 eV

  Derived energy quantities:
  | Kinetic energy                :        1609.18656879 Ha       43788.19445550 eV
  | Electrostatic energy          :       -2987.51339006 Ha      -81294.37555588 eV
  | Energy correction for multipole
  | error in Hartree potential    :          -0.20365839 Ha          -5.54182677 eV
  | Sum of eigenvalues per atom                           :        -390.69556185 eV
  | Total energy (T->0) per atom                          :        -685.87426937 eV  <-- do not rely on this value for anything but (periodic) metals
  | Electronic free energy per atom                       :        -685.87426937 eV
  End evaluation of scaled ZORA corrections.
  | Time for scaled ZORA corrections           :        8.370 s           8.382 s
------------------------------------------------------------

  Energy and forces in a compact form:
  | Total energy uncorrected      :         -0.438959532399561E+05 eV
  | Total energy corrected        :         -0.438959532399561E+05 eV  <-- do not rely on this value for anything but (periodic) metals
  | Electronic free energy        :         -0.438959532399561E+05 eV

  ------------------------------------ 
  Start decomposition of the XC Energy 
  ------------------------------------ 
  X and C from original XC functional choice 
  Hartree-Fock Energy :          0.000000000 Ha              0.000000000 eV
  X Energy            :       -225.571774907 Ha          -6138.120299343 eV
  C Energy            :         -9.248035146 Ha           -251.651840238 eV
  Total XC Energy     :       -234.819810053 Ha          -6389.772139581 eV
  ------------------------------------ 
  LDA X and C from self-consistent density 
  X Energy LDA        :       -204.368430346 Ha          -5561.147937796 eV
  C Energy LDA        :        -17.760022913 Ha           -483.274812212 eV
  ------------------------------------ 
  End decomposition of the XC Energy 
  ------------------------------------ 

------------------------------------------------------------

------------------------------------------------------------------------------
  Final output of selected total energy values:

  The following output summarizes some interesting total energy values
  at the end of a run (AFTER all relaxation, molecular dynamics, etc.).

  | Total energy of the DFT / Hartree-Fock s.c.f. calculation      :         -43895.953239956 eV
  | Final zero-broadening corrected energy (caution - metals only) :         -43895.953239956 eV
  | For reference only, the value of 1 Hartree used in FHI-aims is :             27.211384500 eV

  Before relying on these values, please be sure to understand exactly which
  total energy value is referred to by a given number. Different objects may
  all carry the same name 'total energy'. Definitions:

  Total energy of the DFT / Hartree-Fock s.c.f. calculation:
  | Note that this energy does not include ANY quantities calculated after the
  | s.c.f. cycle, in particular not ANY RPA, MP2, etc. many-body perturbation terms.
  | Scalar relativistic effects have been included in the 'scaled ZORA' approximation.

  Final zero-broadening corrected energy:
  | For metallic systems only, a broadening of the occupation numbers at the Fermi
  | level can be extrapolated back to zero broadening by an electron-gas inspired
  | formula. For all systems that are not real metals, this value can be
  | meaningless and should be avoided.

------------------------------------------------------------------------------
  Methods described in the following list of references were used in this FHI-aims run.
  If you publish the results, please make sure to cite these reference if they apply.
  FHI-aims is an academic code, and for our developers (often, Ph.D. students
  and postdocs), scientific credit in the community is essential.
  Thank you for helping us!

  For any use of FHI-aims, please cite:

    Volker Blum, Ralf Gehrke, Felix Hanke, Paula Havu, Ville Havu,
    Xinguo Ren, Karsten Reuter, and Matthias Scheffler
    'Ab initio molecular simulations with numeric atom-centered orbitals'
    Computer Physics Communications 180, 2175-2196 (2009)
    http://dx.doi.org/10.1016/j.cpc.2009.06.022


  The scalable eigensolver library ELPA was used in your run.
  ELPA is essential especially for large systems on hundreds or thousands of CPUs.
  For ELPA, please cite:

    Andreas Marek, Volker Blum, Rainer Johanni, Ville Havu, Bruno Lang,
    Thomas Auckenthaler, Alexander Heinecke, Hans-Joachim Bungartz, and Hermann Lederer,
    'The ELPA Library - Scalable Parallel Eigenvalue Solutions
    for Electronic Structure Theory and Computational Science'
    The Journal of Physics: Condensed Matter 26, 213201 (2014).
    http://dx.doi.org/10.1088/0953-8984/26/21/213201


  The ELSI infrastructure was used in your run to solve the Kohn-Sham electronic structure.
  Please check out http://elsi-interchange.org to learn more.
  If scalability is important for your project, please acknowledge ELSI by citing:

    V. W-z. Yu, F. Corsetti, A. Garcia, W. P. Huhn, M. Jacquelin, W. Jia,
    B. Lange, L. Lin, J. Lu, W. Mi, A. Seifitokaldani, A. Vazquez-Mayagoitia,
    C. Yang, H. Yang, and V. Blum
    'ELSI: A unified software interface for Kohn-Sham electronic structure solvers'
    Computer Physics Communications 222, 267-285 (2018).
    http://dx.doi.org/10.1016/j.cpc.2017.09.007


  For the real-space grid partitioning and parallelization used in this calculation, please cite:

    Ville Havu, Volker Blum, Paula Havu, and Matthias Scheffler,
    'Efficient O(N) integration for all-electron electronic structure calculation'
    'using numerically tabulated basis functions'
    Journal of Computational Physics 228, 8367-8379 (2009).
    http://dx.doi.org/10.1016/j.jcp.2009.08.008

  Of course, there are many other important community references, e.g., those cited in the
  above references. Our list is limited to references that describe implementations in the
  FHI-aims code. The reason is purely practical (length of this list) - please credit others as well.

------------------------------------------------------------
          Leaving FHI-aims.
          Date     :  20210620, Time     :  171625.861

          Computational steps:
          | Number of self-consistency cycles          :           19
          | Number of SCF (re)initializations          :            1

          Detailed time accounting                     :  max(cpu_time)    wall_clock(cpu1)
          | Total time                                 :      168.370 s         176.468 s
          | Preparation time                           :        0.189 s           0.176 s
          | Boundary condition initalization           :        0.001 s           0.004 s
          | Grid partitioning                          :        1.051 s           1.054 s
          | Preloading free-atom quantities on grid    :        0.014 s           0.016 s
          | Free-atom superposition energy             :        0.096 s           0.096 s
          | Total time for integrations                :       93.469 s          93.478 s
          | Total time for solution of K.-S. equations :        5.375 s           5.397 s
          | Total time for density update              :       41.230 s          41.166 s
          | Total time for mixing                      :        0.210 s           8.100 s
          | Total time for Hartree multipole update    :        0.255 s           0.262 s
          | Total time for Hartree multipole sum       :       16.677 s          16.678 s
          | Total time for total energy evaluation     :        0.006 s           0.035 s
          | Total time for scaled ZORA corrections     :        8.370 s           8.382 s

          Partial memory accounting:
          | Residual value for overall tracked memory usage across tasks :     0.000000 MB (should be 0.000000 MB)
          | Peak values for overall tracked memory usage (after allocating zora_vector2):
          |   Minimum:       32.415 MB (on task 15)
          |   Maximum:       42.934 MB (on task  7)
          |   Average:       37.128 MB
          | Largest tracked array allocation (hamiltonian_shell):
          |   Minimum:        8.770 MB (on task  1)
          |   Maximum:        8.770 MB (on task  1)
          |   Average:        8.770 MB
          Note:  These values currently only include a subset of arrays which are explicitly tracked.
          The "true" memory usage will be greater.

          Have a nice day.
------------------------------------------------------------
