  MPI-parallelism will be employed.
------------------------------------------------------------
          Invoking FHI-aims ...
          Version 180607
          Git rev. (modified): 6724847 Fix JSON memory corruption in scf_solver
          Compiled on 2018/06/27 at 16:00:31 on host coe.psc.edu.

          When using FHI-aims, please cite the following reference:

          Volker Blum, Ralf Gehrke, Felix Hanke, Paula Havu,
          Ville Havu, Xinguo Ren, Karsten Reuter, and Matthias Scheffler,
          'Ab Initio Molecular Simulations with Numeric Atom-Centered Orbitals',
          Computer Physics Communications 180, 2175-2196 (2009)

          For any questions about FHI-aims, please visit the aimsclub website
          with its forums and wiki. Contributions to both the forums and the
          wiki are warmly encouraged - they are for you, and everyone is welcome there.

------------------------------------------------------------



  Date     :  20210620, Time     :  174204.177
  Time zero on CPU 1             :   0.225586000000000E+00  s.
  Internal wall clock time zero  :           393442924.177  s.

  FHI-aims created a unique identifier for this run for later identification
  aims_uuid : 9881D355-E19D-48B9-AB74-FB9D01FA2F40

  Using       56 parallel tasks.
  Task        0 on host d001 reporting.
  Task        1 on host d001 reporting.
  Task        2 on host d001 reporting.
  Task        3 on host d001 reporting.
  Task        4 on host d001 reporting.
  Task        5 on host d001 reporting.
  Task        6 on host d001 reporting.
  Task        7 on host d001 reporting.
  Task        8 on host d001 reporting.
  Task        9 on host d001 reporting.
  Task       10 on host d001 reporting.
  Task       11 on host d001 reporting.
  Task       12 on host d001 reporting.
  Task       13 on host d001 reporting.
  Task       14 on host d001 reporting.
  Task       15 on host d001 reporting.
  Task       16 on host d001 reporting.
  Task       17 on host d001 reporting.
  Task       18 on host d001 reporting.
  Task       19 on host d001 reporting.
  Task       20 on host d001 reporting.
  Task       21 on host d001 reporting.
  Task       22 on host d001 reporting.
  Task       23 on host d001 reporting.
  Task       24 on host d001 reporting.
  Task       25 on host d001 reporting.
  Task       26 on host d001 reporting.
  Task       27 on host d001 reporting.
  Task       28 on host d001 reporting.
  Task       29 on host d001 reporting.
  Task       30 on host d001 reporting.
  Task       31 on host d001 reporting.
  Task       32 on host d001 reporting.
  Task       33 on host d001 reporting.
  Task       34 on host d001 reporting.
  Task       35 on host d001 reporting.
  Task       36 on host d001 reporting.
  Task       37 on host d001 reporting.
  Task       38 on host d001 reporting.
  Task       39 on host d001 reporting.
  Task       40 on host d001 reporting.
  Task       41 on host d001 reporting.
  Task       42 on host d001 reporting.
  Task       43 on host d001 reporting.
  Task       44 on host d001 reporting.
  Task       45 on host d001 reporting.
  Task       46 on host d001 reporting.
  Task       47 on host d001 reporting.
  Task       48 on host d001 reporting.
  Task       49 on host d001 reporting.
  Task       50 on host d001 reporting.
  Task       51 on host d001 reporting.
  Task       52 on host d001 reporting.
  Task       53 on host d001 reporting.
  Task       54 on host d001 reporting.
  Task       55 on host d001 reporting.

  Performing system and environment tests:
  *** Environment variable OMP_NUM_THREADS is not set
  *** For performance reasons you might want to set it to 1
  | Stacksize not measured: no C compiler
  | Checking for scalapack...
  | Testing pdtran()...
  | All pdtran() tests passed.

  Obtaining array dimensions for all initial allocations:
  
  -----------------------------------------------------------------------
  Parsing control.in (first pass over file, find array dimensions only).
  The contents of control.in will be repeated verbatim below
  unless switched off by setting 'verbatim_writeout .false.' .
  in the first line of control.in .
  -----------------------------------------------------------------------
  
  #===============================================================================
  # FHI-aims file: ./Runs/es/control.in
  # Created using the Atomic Simulation Environment (ASE)
  # Mon Jan 13 16:04:38 2020
  #===============================================================================
  xc                                 pbe
  relativistic                       zora scalar 1e-12
  occupation_type                    gaussian 0.0001
  load_balancing                     .true.
  KS_method                          scalapack_fast
  mixer                              pulay
  n_max_pulay                        5
  charge_mix_param                   0.4
  sc_accuracy_etot                   1e-6
  sc_accuracy_eev                    1e-4
  sc_accuracy_rho                    1e-6
  sc_iter_limit                      100
  prodbas_threshold                  1e-4
  basis_threshold                    1e-5
  override_illconditioning           .true.
  use_logsbt                         .true.
  spin                               none
  charge                             0
  #===============================================================================
  
  ################################################################################
  #
  #  FHI-aims code project
  # Volker Blum, Fritz Haber Institute Berlin, 2009
  #
  #  Suggested "tight" defaults for H atom (to be pasted into control.in file)
  #
  ################################################################################
    species        H
  #     global species definitions
      nucleus             1
      mass                1.00794
  #
      l_hartree           6
  #
      cut_pot             4.0  2.0  1.0
      basis_dep_cutoff    1e-4
  #
      radial_base         24 7.0
      radial_multiplier   2
      angular_grids       specified
        division   0.1930   50
        division   0.3175  110
        division   0.4293  194
        division   0.5066  302
        division   0.5626  434
  #      division   0.5922  590
  #      division   0.6227  974
  #      division   0.6868 1202
  #      outer_grid  770
        outer_grid  434
  ################################################################################
  #
  #  Definition of "minimal" basis
  #
  ################################################################################
  #     valence basis states
      valence      1  s   1.
  #     ion occupancy
      ion_occ      1  s   0.5
  ################################################################################
  #
  #  Suggested additional basis functions. For production calculations,
  #  uncomment them one after another (the most important basis functions are
  #  listed first).
  #
  #  Basis constructed for dimers: 0.5 A, 0.7 A, 1.0 A, 1.5 A, 2.5 A
  #
  ################################################################################
  #  "First tier" - improvements: -1014.90 meV to -62.69 meV
       hydro 2 s 2.1
       hydro 2 p 3.5
  #  "Second tier" - improvements: -12.89 meV to -1.83 meV
       hydro 1 s 0.85
       hydro 2 p 3.7
       hydro 2 s 1.2
       hydro 3 d 7
  #  "Third tier" - improvements: -0.25 meV to -0.12 meV
  #     hydro 4 f 11.2
  #     hydro 3 p 4.8
  #     hydro 4 d 9
  #     hydro 3 s 3.2
  ################################################################################
  #
  # For methods that use the localized form of the "resolution of identity" for
  # the two-electron Coulomb operator (RI_method LVL), particularly Hartree-Fock and
  # hybrid density functional calculations, the highest accuracy can be obtained by
  # uncommenting the line beginning with "for_aux"  below, thus adding an extra g radial
  # function to the construction of the product basis set for the expansion.
  # See Ref. New J. Phys. 17, 093020 (2015) for more information, particularly Figs. 1 and 6.
  #
  ################################################################################
  #
  # for_aux hydro 5 g 6.0
  ################################################################################
  #
  #  FHI-aims code project
  # Volker Blum, Fritz Haber Institute Berlin, 2009
  #
  #  Suggested "tight" defaults for C atom (to be pasted into control.in file)
  #
  ################################################################################
    species        C
  #     global species definitions
      nucleus             6
      mass                12.0107
  #
      l_hartree           6
  #
      cut_pot             4.0  2.0  1.0
      basis_dep_cutoff    1e-4
  #
      radial_base         34 7.0
      radial_multiplier   2
      angular_grids specified
        division   0.2187   50
        division   0.4416  110
        division   0.6335  194
        division   0.7727  302
        division   0.8772  434
  #      division   0.9334  590
  #      division   0.9924  770
  #      division   1.0230  974
  #      division   1.5020 1202
  #     outer_grid  974
        outer_grid  434
  ################################################################################
  #
  #  Definition of "minimal" basis
  #
  ################################################################################
  #     valence basis states
      valence      2  s   2.
      valence      2  p   2.
  #     ion occupancy
      ion_occ      2  s   1.
      ion_occ      2  p   1.
  ################################################################################
  #
  #  Suggested additional basis functions. For production calculations,
  #  uncomment them one after another (the most important basis functions are
  #  listed first).
  #
  #  Constructed for dimers: 1.0 A, 1.25 A, 1.5 A, 2.0 A, 3.0 A
  #
  ################################################################################
  #  "First tier" - improvements: -1214.57 meV to -155.61 meV
       hydro 2 p 1.7
       hydro 3 d 6
       hydro 2 s 4.9
  #  "Second tier" - improvements: -67.75 meV to -5.23 meV
       hydro 4 f 9.8
       hydro 3 p 5.2
       hydro 3 s 4.3
       hydro 5 g 14.4
       hydro 3 d 6.2
  #  "Third tier" - improvements: -2.43 meV to -0.60 meV
  #     hydro 2 p 5.6
  #     hydro 2 s 1.4
  #     hydro 3 d 4.9
  #     hydro 4 f 11.2
  #  "Fourth tier" - improvements: -0.39 meV to -0.18 meV
  #     hydro 2 p 2.1
  #     hydro 5 g 16.4
  #     hydro 4 d 13.2
  #     hydro 3 s 13.6
  #     hydro 4 f 17.6
  #  Further basis functions - improvements: -0.08 meV and below
  #     hydro 3 s 2
  #     hydro 3 p 6
  #     hydro 4 d 20
  ################################################################################
  #
  # For methods that use the localized form of the "resolution of identity" for
  # the two-electron Coulomb operator (RI_method LVL), particularly Hartree-Fock and
  # hybrid density functional calculations, the highest accuracy can be obtained by
  # uncommenting the line beginning with "for_aux"  below, thus adding an extra g radial
  # function to the construction of the product basis set for the expansion.
  # See Ref. New J. Phys. 17, 093020 (2015) for more information, particularly Figs. 1 and 6.
  #
  ################################################################################
  #
  # for_aux hydro 5 g 6.0
  
  -----------------------------------------------------------------------
  Completed first pass over input file control.in .
  -----------------------------------------------------------------------
  
  
  -----------------------------------------------------------------------
  Parsing geometry.in (first pass over file, find array dimensions only).
  The contents of geometry.in will be repeated verbatim below
  unless switched off by setting 'verbatim_writeout .false.' .
  in the first line of geometry.in .
  -----------------------------------------------------------------------
  
  #=======================================================
  # FHI-aims file: geometry.in
  # Created using the Atomic Simulation Environment (ASE)
  # Sun Jun 20 15:47:02 2021
  #=======================================================
  atom 22.0774879999999989 26.4325270000000003 38.7606869999999972 H
  atom 22.0253750000000004 26.1654300000000006 37.7045409999999990 C
  atom 20.9955180000000006 26.6656049999999993 36.9160260000000022 C
  atom 22.9933879999999995 25.3308259999999983 37.1627110000000016 C
  atom 20.9244039999999991 26.3230760000000004 35.5758340000000004 C
  atom 20.2498469999999990 27.3279819999999987 37.3503029999999967 H
  atom 22.8988270000000007 24.9730090000000011 35.8137639999999990 C
  atom 24.0527920000000002 24.7716220000000007 38.0581519999999998 C
  atom 20.1187709999999988 26.7178499999999985 34.9580290000000034 H
  atom 21.8716779999999993 25.4736900000000013 35.0304089999999988 C
  atom 23.6486720000000012 24.3109350000000006 35.3807380000000009 H
  atom 23.8502060000000000 23.4756229999999988 38.5537089999999978 C
  atom 25.1493180000000009 25.5572209999999984 38.5205679999999973 C
  atom 21.8158349999999999 25.1812800000000010 33.9828609999999998 H
  atom 22.7953450000000011 22.6333240000000018 38.0620609999999999 C
  atom 24.6642459999999986 22.9788899999999998 39.6303339999999977 C
  atom 25.9518239999999984 25.0677790000000016 39.6429970000000012 C
  atom 25.4771719999999995 26.8147459999999995 37.9313709999999986 C
  atom 22.6149190000000004 21.3724570000000007 38.5343250000000026 C
  atom 22.1426060000000007 23.0211110000000012 37.2837079999999972 H
  atom 24.4055129999999991 21.6532240000000016 40.1179190000000006 C
  atom 25.6239699999999999 23.8102540000000005 40.2321939999999998 C
  atom 27.0483499999999992 25.8533779999999993 40.1054129999999986 C
  atom 25.0359559999999988 27.1946359999999991 36.5438120000000026 C
  atom 26.4368960000000008 27.6461100000000002 38.5332310000000007 C
  atom 21.8271079999999991 20.7443020000000011 38.1213089999999966 H
  atom 23.4452560000000005 20.8653979999999990 39.5676470000000009 C
  atom 25.0144300000000008 21.2732320000000001 40.9341030000000003 H
  atom 26.0651870000000017 23.4303640000000009 41.6197530000000029 C
  atom 28.1077539999999999 25.2941740000000017 41.0008539999999968 C
  atom 27.2509359999999994 27.1493770000000012 39.6098560000000006 C
  atom 24.0566749999999985 28.1379820000000009 36.2524179999999987 C
  atom 25.7349290000000011 26.6117400000000011 35.4878220000000013 C
  atom 26.6956290000000003 28.9717759999999984 38.0456459999999979 C
  atom 23.3031019999999991 19.8486450000000012 39.9331400000000016 H
  atom 25.3662129999999983 24.0132599999999989 42.6757429999999971 C
  atom 27.0444670000000009 22.4870179999999991 41.9111469999999997 C
  atom 29.0757669999999990 24.4595699999999994 40.4590249999999969 C
  atom 28.2023149999999987 25.6519909999999989 42.3498009999999994 C
  atom 28.3057979999999993 27.9916759999999982 40.1015039999999985 C
  atom 23.7592630000000007 28.4582359999999994 34.9342669999999984 C
  atom 23.5020950000000006 28.6112250000000010 37.0623489999999975 H
  atom 25.4529509999999988 26.9542690000000000 34.1717039999999983 C
  atom 26.5001309999999997 25.8686660000000010 35.7051170000000013 H
  atom 26.0867119999999986 29.3517669999999988 37.2294619999999981 H
  atom 27.6558859999999989 29.7596029999999985 38.5959179999999975 C
  atom 24.6010109999999997 24.7563339999999990 42.4584490000000017 H
  atom 25.6481910000000006 23.6707310000000000 43.9918610000000001 C
  atom 27.5990469999999988 22.0137749999999990 41.1012160000000009 H
  atom 27.3418789999999987 22.1667640000000006 43.2292980000000000 C
  atom 29.0236540000000005 24.1924729999999997 39.4028780000000012 H
  atom 30.1056249999999999 23.9593950000000007 41.2475390000000033 C
  atom 27.4524700000000017 26.3140649999999994 42.7828269999999975 H
  atom 29.2294640000000001 25.1513099999999987 43.1331559999999996 C
  atom 28.9585359999999987 27.6038889999999988 40.8798570000000012 H
  atom 28.4862229999999990 29.2525429999999993 39.6292400000000029 C
  atom 22.9639080000000000 29.1709350000000001 34.7221320000000020 H
  atom 24.4626139999999985 27.8743270000000010 33.8931290000000018 C
  atom 26.0184899999999999 26.4905439999999999 33.3648990000000012 H
  atom 27.7980400000000003 30.7763549999999988 38.2304249999999968 H
  atom 25.0826519999999995 24.1344560000000001 44.7986659999999972 H
  atom 26.6385280000000009 22.7506729999999990 44.2704359999999966 C
  atom 28.1372339999999994 21.4540649999999999 43.4414340000000010 H
  atom 30.8512960000000014 23.2970170000000003 40.8132620000000017 H
  atom 30.1767380000000003 24.3019239999999996 42.5877309999999980 C
  atom 29.2853080000000006 25.4437199999999990 44.1807050000000032 H
  atom 29.2740340000000003 29.8806970000000014 40.0422560000000018 H
  atom 24.2393180000000008 28.1463859999999997 32.8609009999999984 H
  atom 26.8618239999999986 22.4786140000000003 45.3026640000000000 H
  atom 30.9823710000000005 23.9071500000000015 43.2055360000000022 H
  
  -----------------------------------------------------------------------
  Completed first pass over input file geometry.in .
  -----------------------------------------------------------------------
  

  Basic array size parameters:
  | Number of species                 :        2
  | Number of atoms                   :       70
  | Max. basis fn. angular momentum   :        4
  | Max. atomic/ionic basis occupied n:        2
  | Max. number of basis fn. types    :        2
  | Max. radial fns per species/type  :        8
  | Max. logarithmic grid size        :     1277
  | Max. radial integration grid size :       69
  | Max. angular integration grid size:      434
  | Max. angular grid division number :        8
  | Radial grid for Hartree potential :     1277
  | Number of spin channels           :        1

------------------------------------------------------------
          Reading file control.in.
------------------------------------------------------------
  XC: Using PBE gradient-corrected functionals.
  Scalar relativistic treatment of kinetic energy: ZORA.
  Threshold value for ZORA:   0.100000E-11
  Occupation type: Gaussian broadening, width =   0.100000E-03 eV.
  Since 'load_balancing .true.' is present in control.in, automatically turning on 'use_local_index .true.'.
  Using load balancing for integrations.
  Kohn-Sham electronic structure solved by the ELSI library.
  Using pulay charge density mixing.
  Pulay mixing - number of memorized iterations:    5
  Charge density mixing - mixing parameter:     0.4000
  Convergence accuracy of total energy:  0.1000E-05
  Convergence accuracy of sum of eigenvalues:  0.1000E-03
  Convergence accuracy of self-consistent charge density:  0.1000E-05
  Maximum number of s.-c. iterations  :   100
  * Ignoring prodbas_threshold
  Threshold for basis singularities:  0.1000E-04
  override_illconditioning: Explicitly overriding any built-in checks for an ill-conditioned overlap matrix.
  *** WARNING: If you use this flag, you should really know what you are doing.
  *** DO NOT keep this flag set by default in all your control.in files.
  Using 1D integrations for auxiliary 2-center integrals.
  Spin treatment: No spin polarisation.
  Charge =   0.000000E+00: Neutral system requested explicitly.
 
  Reading configuration options for species H                   .
  | Found nuclear charge :   1.0000
  | Found atomic mass :    1.00794000000000      amu
  | Found l_max for Hartree potential  :   6
  | Found cutoff potl. onset [A], width [A], scale factor :    4.00000    2.00000    1.00000
  | Threshold for basis-dependent cutoff potential is   0.100000E-03
  | Found data for basic radial integration grid :    24 points, outermost radius =    7.000 A
  | Found multiplier for basic radial grid :   2
  | Found angular grid specification: user-specified.
  | Specified grid contains     6 separate shells.
  | Check grid settings after all constraints further below.
  | Found free-atom valence shell :  1 s   1.000
  | No ionic wave fns used. Skipping ion_occ.
  | Found hydrogenic basis function :  2 s   2.100
  | Found hydrogenic basis function :  2 p   3.500
  | Found hydrogenic basis function :  1 s   0.850
  | Found hydrogenic basis function :  2 p   3.700
  | Found hydrogenic basis function :  2 s   1.200
  | Found hydrogenic basis function :  3 d   7.000
  Species H                   : Missing cutoff potential type.
  Defaulting to exp(1/x)/(1-x)^2 type cutoff potential.
  Species H : No 'logarithmic' tag. Using default grid for free atom:
  | Default logarithmic grid data [bohr] : 0.1000E-03 0.1000E+03 0.1012E+01
  Species H : On-site basis accuracy parameter (for Gram-Schmidt orthonormalisation) not specified.
  Using default value basis_acc =  0.1000000E-03.
  Species H                   : Using default innermost maximum threshold i_radial=  2 for radial functions.
  Species H                   : Default cutoff onset for free atom density etc. : 0.40000000E+01 AA.
  Species H                   : Basic radial grid will be enhanced according to radial_multiplier =   2, to contain    49 grid points.
 
  Reading configuration options for species C                   .
  | Found nuclear charge :   6.0000
  | Found atomic mass :    12.0107000000000      amu
  | Found l_max for Hartree potential  :   6
  | Found cutoff potl. onset [A], width [A], scale factor :    4.00000    2.00000    1.00000
  | Threshold for basis-dependent cutoff potential is   0.100000E-03
  | Found data for basic radial integration grid :    34 points, outermost radius =    7.000 A
  | Found multiplier for basic radial grid :   2
  | Found angular grid specification: user-specified.
  | Specified grid contains     6 separate shells.
  | Check grid settings after all constraints further below.
  | Found free-atom valence shell :  2 s   2.000
  | Found free-atom valence shell :  2 p   2.000
  | No ionic wave fns used. Skipping ion_occ.
  | No ionic wave fns used. Skipping ion_occ.
  | Found hydrogenic basis function :  2 p   1.700
  | Found hydrogenic basis function :  3 d   6.000
  | Found hydrogenic basis function :  2 s   4.900
  | Found hydrogenic basis function :  4 f   9.800
  | Found hydrogenic basis function :  3 p   5.200
  | Found hydrogenic basis function :  3 s   4.300
  | Found hydrogenic basis function :  5 g  14.400
  | Found hydrogenic basis function :  3 d   6.200
  Species C                   : Missing cutoff potential type.
  Defaulting to exp(1/x)/(1-x)^2 type cutoff potential.
  Species C : No 'logarithmic' tag. Using default grid for free atom:
  | Default logarithmic grid data [bohr] : 0.1000E-03 0.1000E+03 0.1012E+01
  Species C : On-site basis accuracy parameter (for Gram-Schmidt orthonormalisation) not specified.
  Using default value basis_acc =  0.1000000E-03.
  Species C                   : Using default innermost maximum threshold i_radial=  2 for radial functions.
  Species C                   : Default cutoff onset for free atom density etc. : 0.40000000E+01 AA.
  Species C                   : Basic radial grid will be enhanced according to radial_multiplier =   2, to contain    69 grid points.
 
  Finished reading input file 'control.in'. Consistency checks are next.
 
  MPI_IN_PLACE appears to work with this MPI implementation.
  | Keeping use_mpi_in_place .true. (see manual).
  Target number of points in a grid batch is not set. Defaulting to  100
  Method for grid partitioning is not set. Defaulting to parallel hash+maxmin partitioning.
  Batch size limit is not set. Defaulting to    200
  By default, will store active basis functions for each batch.
  If in need of memory, prune_basis_once .false. can be used to disable this option.
  communication_type for Hartree potential was not specified.
  Defaulting to calc_hartree .
  Pulay mixer: Number of initial linear mixing iterations not set.
  Defaulting to    0 iterations.
  Work space size for distributed Hartree potential not set.
  Defaulting to   0.200000E+03 MB.
  Algorithm-dependent basis array size parameters:
  | n_max_pulay                         :        5
  Presetting      1001 iterations before the initial mixing cycle
  is restarted anyway using the sc_init_iter criterion / keyword.
  Presetting a factor      1.000 between actual scf density residual
  and density convergence criterion sc_accuracy_rho below which sc_init_iter
  takes no effect.
  Calculation of forces was not defined in control.in. No forces will be calculated.
  Geometry relaxation not requested: no relaxation will be performed.
  No accuracy limit for integral partition fn. given. Defaulting to  0.1000E-14.
  No threshold value for u(r) in integrations given. Defaulting to  0.1000E-05.
  No accuracy for occupation numbers given. Defaulting to  0.1000E-12.
  No threshold value for occupation numbers given. Defaulting to  0.0000E+00.
  No accuracy for fermi level given. Defaulting to  0.1000E-19.
  Maximum # of iterations to find E_F not set. Defaulting to  200.
  Will not use alltoall communication since running on < 1024 CPUs.
  partition_type (choice of integration weights) for integrals was not specified.
  | Using a version of the partition function of Stratmann and coworkers ('stratmann_sparse').
  | At each grid point, the set of atoms used to build the partition table is smoothly restricted to
  | only those atoms whose free-atom density would be non-zero at that grid point.
  Partitioning for Hartree potential was not defined. Using partition_type for integrals.
  | Adjusted default value of keyword multip_moments_threshold to:       0.10000000E-11
  | This value may affect high angular momentum components of the Hartree potential in periodic systems.
  No q(lm)/r^(l+1) cutoff set for long-range Hartree potential.
  | Using default value of  0.100000E-09 .
  | Verify using the multipole_threshold keyword.
  Defaulting to new monopole extrapolation.
  Density update method: automatic selection selected.
 * Warning: use_local_index and/or load_balancing needs packed_matrix_format = index
 * Changing the default setting to packed_matrix_format = index
------------------------------------------------------------


------------------------------------------------------------
          Reading geometry description geometry.in.
------------------------------------------------------------
  Input structure read successfully.
  The structure contains       70 atoms,  and a total of        280.000 electrons.

  Input geometry:
  | No unit cell requested.
  | Atomic structure:
  |       Atom                x [A]            y [A]            z [A]
  |    1: Species H            22.07748800       26.43252700       38.76068700
  |    2: Species C            22.02537500       26.16543000       37.70454100
  |    3: Species C            20.99551800       26.66560500       36.91602600
  |    4: Species C            22.99338800       25.33082600       37.16271100
  |    5: Species C            20.92440400       26.32307600       35.57583400
  |    6: Species H            20.24984700       27.32798200       37.35030300
  |    7: Species C            22.89882700       24.97300900       35.81376400
  |    8: Species C            24.05279200       24.77162200       38.05815200
  |    9: Species H            20.11877100       26.71785000       34.95802900
  |   10: Species C            21.87167800       25.47369000       35.03040900
  |   11: Species H            23.64867200       24.31093500       35.38073800
  |   12: Species C            23.85020600       23.47562300       38.55370900
  |   13: Species C            25.14931800       25.55722100       38.52056800
  |   14: Species H            21.81583500       25.18128000       33.98286100
  |   15: Species C            22.79534500       22.63332400       38.06206100
  |   16: Species C            24.66424600       22.97889000       39.63033400
  |   17: Species C            25.95182400       25.06777900       39.64299700
  |   18: Species C            25.47717200       26.81474600       37.93137100
  |   19: Species C            22.61491900       21.37245700       38.53432500
  |   20: Species H            22.14260600       23.02111100       37.28370800
  |   21: Species C            24.40551300       21.65322400       40.11791900
  |   22: Species C            25.62397000       23.81025400       40.23219400
  |   23: Species C            27.04835000       25.85337800       40.10541300
  |   24: Species C            25.03595600       27.19463600       36.54381200
  |   25: Species C            26.43689600       27.64611000       38.53323100
  |   26: Species H            21.82710800       20.74430200       38.12130900
  |   27: Species C            23.44525600       20.86539800       39.56764700
  |   28: Species H            25.01443000       21.27323200       40.93410300
  |   29: Species C            26.06518700       23.43036400       41.61975300
  |   30: Species C            28.10775400       25.29417400       41.00085400
  |   31: Species C            27.25093600       27.14937700       39.60985600
  |   32: Species C            24.05667500       28.13798200       36.25241800
  |   33: Species C            25.73492900       26.61174000       35.48782200
  |   34: Species C            26.69562900       28.97177600       38.04564600
  |   35: Species H            23.30310200       19.84864500       39.93314000
  |   36: Species C            25.36621300       24.01326000       42.67574300
  |   37: Species C            27.04446700       22.48701800       41.91114700
  |   38: Species C            29.07576700       24.45957000       40.45902500
  |   39: Species C            28.20231500       25.65199100       42.34980100
  |   40: Species C            28.30579800       27.99167600       40.10150400
  |   41: Species C            23.75926300       28.45823600       34.93426700
  |   42: Species H            23.50209500       28.61122500       37.06234900
  |   43: Species C            25.45295100       26.95426900       34.17170400
  |   44: Species H            26.50013100       25.86866600       35.70511700
  |   45: Species H            26.08671200       29.35176700       37.22946200
  |   46: Species C            27.65588600       29.75960300       38.59591800
  |   47: Species H            24.60101100       24.75633400       42.45844900
  |   48: Species C            25.64819100       23.67073100       43.99186100
  |   49: Species H            27.59904700       22.01377500       41.10121600
  |   50: Species C            27.34187900       22.16676400       43.22929800
  |   51: Species H            29.02365400       24.19247300       39.40287800
  |   52: Species C            30.10562500       23.95939500       41.24753900
  |   53: Species H            27.45247000       26.31406500       42.78282700
  |   54: Species C            29.22946400       25.15131000       43.13315600
  |   55: Species H            28.95853600       27.60388900       40.87985700
  |   56: Species C            28.48622300       29.25254300       39.62924000
  |   57: Species H            22.96390800       29.17093500       34.72213200
  |   58: Species C            24.46261400       27.87432700       33.89312900
  |   59: Species H            26.01849000       26.49054400       33.36489900
  |   60: Species H            27.79804000       30.77635500       38.23042500
  |   61: Species H            25.08265200       24.13445600       44.79866600
  |   62: Species C            26.63852800       22.75067300       44.27043600
  |   63: Species H            28.13723400       21.45406500       43.44143400
  |   64: Species H            30.85129600       23.29701700       40.81326200
  |   65: Species C            30.17673800       24.30192400       42.58773100
  |   66: Species H            29.28530800       25.44372000       44.18070500
  |   67: Species H            29.27403400       29.88069700       40.04225600
  |   68: Species H            24.23931800       28.14638600       32.86090100
  |   69: Species H            26.86182400       22.47861400       45.30266400
  |   70: Species H            30.98237100       23.90715000       43.20553600
  |

  | The smallest distance between any two atoms is         1.08688978 AA.
  |
  | The first atom of this pair is atom number                     34 .
  | The second atom of this pair is atom number                    45 .

  Number of empty states per atom not set in control.in - providing a guess from actual geometry.
  | Total number of empty states used during s.c.f. cycle:      168
  If you use a very high smearing, use empty_states (per atom!) in control.in to increase this value.

  Structure-dependent array size parameters: 
  | Maximum number of distinct radial functions  :       18
  | Maximum number of basis functions            :     2058
  | Number of Kohn-Sham states (occupied + empty):      308
------------------------------------------------------------

------------------------------------------------------------
          Preparing all fixed parts of the calculation.
------------------------------------------------------------
  Determining machine precision:
    2.225073858507201E-308
  Setting up grids for atomic and cluster calculations.

  Creating wave function, potential, and density for free atoms.

  Species: H

  List of occupied orbitals and eigenvalues:
    n    l              occ      energy [Ha]    energy [eV]
    1    0           1.0000        -0.238386        -6.4868


  Species: C

  List of occupied orbitals and eigenvalues:
    n    l              occ      energy [Ha]    energy [eV]
    1    0           2.0000       -10.049212      -273.4530
    2    0           2.0000        -0.504761       -13.7352
    2    1           2.0000        -0.193631        -5.2690

  Creating fixed part of basis set: Ionic, confined, hydrogenic.
 
  H                    hydrogenic:
 
  List of hydrogenic basis orbitals: 
    n    l      effective z      eigenvalue [eV]  inner max. [A]     outer max. [A]     outer radius [A]   
    2    0         2.100000       -14.9965           0.193243           1.317208           5.373006
    2    1         3.500000       -41.6672           0.602369           0.602369           4.056063
    1    0         0.850000        -9.8292           0.624871           0.624871           5.373006
    2    1         3.700000       -46.5653           0.573622           0.573622           3.910002
    2    0         1.200000        -4.5995           0.334980           2.228188           5.505995
    3    2         7.000000       -74.0753           0.680699           0.680699           3.769201
 
 
  C                    hydrogenic:
 
  List of hydrogenic basis orbitals: 
    n    l      effective z      eigenvalue [eV]  inner max. [A]     outer max. [A]     outer radius [A]   
    2    1         1.700000        -9.8152           1.245706           1.245706           5.401630
    3    2         6.000000       -54.4226           0.792453           0.792453           4.178599
    2    0         4.900000       -81.6681           0.082559           0.562749           3.353238
    4    3         9.800000       -81.6681           0.863254           0.863254           4.028125
    3    1         5.200000       -40.8774           0.305389           1.215618           4.898362
    3    0         4.300000       -27.9508           0.091041           1.610311           5.401630
    5    4        14.400000      -112.8510           0.917666           0.917666           3.883070
    3    2         6.200000       -58.1113           0.763917           0.763917           4.077671
 

  Adding cutoff potential to free-atom effective potential.
  Creating atomic-like basis functions for current effective potential.

  Species H                   :

  List of atomic basis orbitals and eigenvalues:
    n    l      energy [Ha]    energy [eV]    outer radius [A]
    1    0        -0.238386        -6.4868       5.373006


  Species C                   :

  List of atomic basis orbitals and eigenvalues:
    n    l      energy [Ha]    energy [eV]    outer radius [A]
    1    0       -10.049212      -273.4530       1.934409
    2    0        -0.504761       -13.7352       5.271162
    2    1        -0.193631        -5.2690       5.401630

  Assembling full basis from fixed parts.
  | Species H :   atomic orbital   1 s accepted.
  | Species H :    hydro orbital   2 s accepted.
  | Species H :    hydro orbital   1 s accepted.
  | Species H :    hydro orbital   2 s accepted.
  | Species H :    hydro orbital   2 p accepted.
  | Species H :    hydro orbital   2 p accepted.
  | Species H :    hydro orbital   3 d accepted.
  | Species C :   atomic orbital   1 s accepted.
  | Species C :    hydro orbital   2 s accepted.
  | Species C :   atomic orbital   2 s accepted.
  | Species C :    hydro orbital   3 s accepted.
  | Species C :    hydro orbital   3 p accepted.
  | Species C :   atomic orbital   2 p accepted.
  | Species C :    hydro orbital   2 p accepted.
  | Species C :    hydro orbital   3 d accepted.
  | Species C :    hydro orbital   3 d accepted.
  | Species C :    hydro orbital   4 f accepted.
  | Species C :    hydro orbital   5 g accepted.
 
  Basis size parameters after reduction:
  | Total number of radial functions:       18
  | Total number of basis functions :     2058
 
  Per-task memory consumption for arrays in subroutine allocate_ext:
  |           4.461216MB.
  Testing on-site integration grid accuracy.
  |  Species  Function  <phi|h_atom|phi> (log., in eV)  <phi|h_atom|phi> (rad., in eV)
           1        1                 -6.4870767962                 -6.4871688290
           1        2                 13.5032046589                 13.5028982997
           1        3                 32.8195184817                 32.8119941656
           1        4                 33.8513856511                 33.7670005767 ***
           1        5                 28.8544614965                 28.8544615203
           1        6                 59.6326952547                 59.6327656460
           1        7                 60.2719308513                 60.2719305949
           2        8               -273.4529726040               -273.4529710464
           2        9                -10.7721037319                -10.7721022101
           2       10                 17.6044132601                 17.6044162063
           2       11                 53.7706460658                 53.7706913770
           2       12                 15.0973290362                 15.0973256030
           2       13                  3.8545134692                  3.8545724687
           2       14                 12.1156992592                 12.1182024431
           2       15                 29.4352039302                 29.4352041816
           2       16                 54.8741144708                 54.8740268729
           2       17                 59.3556032049                 59.3556031382
           2       18                 93.4551837154                 93.4551838009
 * Note: Onsite integrals marked "***" above are less accurate than
 * onsite_accuracy_threshold =    0.03000 eV. Usually, this is harmless.
 * When in doubt, tighten the "radial" and/or "radial_multiplier" flags to check.

  Preparing densities etc. for the partition functions (integrals / Hartree potential).

  Preparations completed.
  max(cpu_time)          :      0.197 s.
  Wall clock time (cpu1) :      0.198 s.
------------------------------------------------------------

------------------------------------------------------------
          Begin self-consistency loop: Initialization.

          Date     :  20210620, Time     :  174204.548
------------------------------------------------------------

  Initializing index lists of integration centers etc. from given atomic structure:
  | Number of centers in hartree potential         :        70
  | Number of centers in hartree multipole         :        70
  | Number of centers in electron density summation:        70
  | Number of centers in basis integrals           :        70
  | Number of centers in integrals                 :        70
  | Number of centers in hamiltonian               :        70
  * Using 56 tasks for Scalapack Eigenvalue solver.
  Detailed listing of tasks and assigned k-points:
  (for non-periodic systems, the "k-point" denotes an internal label only)
   Task     0 k-point     1 on d001
   Task     1 k-point     1 on d001
   Task     2 k-point     1 on d001
   Task     3 k-point     1 on d001
   Task     4 k-point     1 on d001
   Task     5 k-point     1 on d001
   Task     6 k-point     1 on d001
   Task     7 k-point     1 on d001
   Task     8 k-point     1 on d001
   Task     9 k-point     1 on d001
   Task    10 k-point     1 on d001
   Task    11 k-point     1 on d001
   Task    12 k-point     1 on d001
   Task    13 k-point     1 on d001
   Task    14 k-point     1 on d001
   Task    15 k-point     1 on d001
   Task    16 k-point     1 on d001
   Task    17 k-point     1 on d001
   Task    18 k-point     1 on d001
   Task    19 k-point     1 on d001
   Task    20 k-point     1 on d001
   Task    21 k-point     1 on d001
   Task    22 k-point     1 on d001
   Task    23 k-point     1 on d001
   Task    24 k-point     1 on d001
   Task    25 k-point     1 on d001
   Task    26 k-point     1 on d001
   Task    27 k-point     1 on d001
   Task    28 k-point     1 on d001
   Task    29 k-point     1 on d001
   Task    30 k-point     1 on d001
   Task    31 k-point     1 on d001
   Task    32 k-point     1 on d001
   Task    33 k-point     1 on d001
   Task    34 k-point     1 on d001
   Task    35 k-point     1 on d001
   Task    36 k-point     1 on d001
   Task    37 k-point     1 on d001
   Task    38 k-point     1 on d001
   Task    39 k-point     1 on d001
   Task    40 k-point     1 on d001
   Task    41 k-point     1 on d001
   Task    42 k-point     1 on d001
   Task    43 k-point     1 on d001
   Task    44 k-point     1 on d001
   Task    45 k-point     1 on d001
   Task    46 k-point     1 on d001
   Task    47 k-point     1 on d001
   Task    48 k-point     1 on d001
   Task    49 k-point     1 on d001
   Task    50 k-point     1 on d001
   Task    51 k-point     1 on d001
   Task    52 k-point     1 on d001
   Task    53 k-point     1 on d001
   Task    54 k-point     1 on d001
   Task    55 k-point     1 on d001
  Tasks:    56 split into      8 X      7 BLACS grid
  Calculating block size based on n_basis =         2058 max_nprow =            8 max_npcol =            7
  ScaLAPACK block size set to:           16
  Allocating        0.647 MB for ovlp
  Allocating        0.647 MB for ham
  Allocating        0.647 MB for eigenvec
  Required Scalapack workspace - INTEGER:            1 REAL:             1
  Partitioning the integration grid into batches with parallel hashing+maxmin method.
  | Number of batches:    10362
  | Maximal batch size:     200
  | Minimal batch size:      17
  | Average batch size:     112.322
  | Standard deviation of batch sizes:      33.010

  Integration load balanced across     56 MPI tasks.
  Work distribution over tasks is as follows:
  Task      0 has      20850 integration points.
  Task      1 has      20847 integration points.
  Task      2 has      20803 integration points.
  Task      3 has      20860 integration points.
  Task      4 has      20742 integration points.
  Task      5 has      20734 integration points.
  Task      6 has      20732 integration points.
  Task      7 has      20927 integration points.
  Task      8 has      20801 integration points.
  Task      9 has      20624 integration points.
  Task     10 has      20841 integration points.
  Task     11 has      20818 integration points.
  Task     12 has      20721 integration points.
  Task     13 has      20717 integration points.
  Task     14 has      20954 integration points.
  Task     15 has      20764 integration points.
  Task     16 has      20764 integration points.
  Task     17 has      20819 integration points.
  Task     18 has      20752 integration points.
  Task     19 has      20807 integration points.
  Task     20 has      20660 integration points.
  Task     21 has      20802 integration points.
  Task     22 has      20882 integration points.
  Task     23 has      20715 integration points.
  Task     24 has      20935 integration points.
  Task     25 has      20648 integration points.
  Task     26 has      20800 integration points.
  Task     27 has      20619 integration points.
  Task     28 has      20904 integration points.
  Task     29 has      20789 integration points.
  Task     30 has      20725 integration points.
  Task     31 has      20870 integration points.
  Task     32 has      20780 integration points.
  Task     33 has      20794 integration points.
  Task     34 has      20750 integration points.
  Task     35 has      20819 integration points.
  Task     36 has      20860 integration points.
  Task     37 has      20706 integration points.
  Task     38 has      20845 integration points.
  Task     39 has      20779 integration points.
  Task     40 has      20754 integration points.
  Task     41 has      20754 integration points.
  Task     42 has      20839 integration points.
  Task     43 has      20803 integration points.
  Task     44 has      20803 integration points.
  Task     45 has      20846 integration points.
  Task     46 has      20664 integration points.
  Task     47 has      20776 integration points.
  Task     48 has      20724 integration points.
  Task     49 has      20847 integration points.
  Task     50 has      20797 integration points.
  Task     51 has      20687 integration points.
  Task     52 has      20814 integration points.
  Task     53 has      20705 integration points.
  Task     54 has      20776 integration points.
  Task     55 has      20728 integration points.
  Initializing partition tables, free-atom densities, potentials, etc. across the integration grid (initialize_grid_storage).
  | initialize_grid_storage: Actual outermost partition radius vs. multipole_radius_free
  | (-- VB: in principle, multipole_radius_free should be larger, hence this output)
  | Species        1: Confinement radius =              6.000000000000000 AA, multipole_radius_free =              6.071692442739658 AA.
  | Species        1: outer_partition_radius set to              6.071692442739658 AA .
  | Species        2: Confinement radius =              6.000000000000000 AA, multipole_radius_free =              6.029870734432609 AA.
  | Species        2: outer_partition_radius set to              6.029870734432609 AA .
  | The sparse table of interatomic distances needs     58.2440 kbyte instead of    39.2000 kbyte of memory.
  | Using the partition_type stratmann_smoother will reduce your memory usage.
  | Net number of integration points:  1163876
  | of which are non-zero points    :   906125
  Renormalizing the initial density to the exact electron count on the 3D integration grid.
  | Initial density: Formal number of electrons (from input files) :     280.0000000000
  | Integrated number of electrons on 3D grid     :     280.0000856081
  | Charge integration error                      :       0.0000856081
  | Normalization factor for density and gradient :       0.9999996943
  Obtaining max. number of non-zero basis functions in each batch (get_n_compute_maxes).
  | Maximal number of non-zero basis functions:     1245
  Selecting the method for density update.
  Loop over occupied states selected for charge density update.
  Hamiltonian matrix size:
  | Size of matrix non-packed:               2118711
  | Size of matrix packed:         1827540
  Allocating        5.071 MB for KS_eigenvector
  use_local_index: Max. local matrix size =      1415185
  Task:     0 matrix size:     493051
  Task:     1 matrix size:     646478
  Task:     2 matrix size:     917349
  Task:     3 matrix size:     354061
  Task:     4 matrix size:     510119
  Task:     5 matrix size:     639705
  Task:     6 matrix size:     989162
  Task:     7 matrix size:     306113
  Task:     8 matrix size:     278631
  Task:     9 matrix size:     544411
  Task:    10 matrix size:     405176
  Task:    11 matrix size:     340928
  Task:    12 matrix size:     842926
  Task:    13 matrix size:     620217
  Task:    14 matrix size:     450848
  Task:    15 matrix size:     463984
  Task:    16 matrix size:     940587
  Task:    17 matrix size:     597531
  Task:    18 matrix size:     828203
  Task:    19 matrix size:     738403
  Task:    20 matrix size:     440798
  Task:    21 matrix size:    1196025
  Task:    22 matrix size:     656747
  Task:    23 matrix size:    1174041
  Task:    24 matrix size:    1380885
  Task:    25 matrix size:    1303207
  Task:    26 matrix size:     778844
  Task:    27 matrix size:     910895
  Task:    28 matrix size:     538542
  Task:    29 matrix size:    1374096
  Task:    30 matrix size:    1113534
  Task:    31 matrix size:    1178885
  Task:    32 matrix size:     689983
  Task:    33 matrix size:    1415185
  Task:    34 matrix size:     985569
  Task:    35 matrix size:     444500
  Task:    36 matrix size:     745198
  Task:    37 matrix size:     621810
  Task:    38 matrix size:    1012647
  Task:    39 matrix size:     500636
  Task:    40 matrix size:     540183
  Task:    41 matrix size:     205044
  Task:    42 matrix size:     825000
  Task:    43 matrix size:     453654
  Task:    44 matrix size:     526217
  Task:    45 matrix size:     654102
  Task:    46 matrix size:     372783
  Task:    47 matrix size:     408023
  Task:    48 matrix size:     284618
  Task:    49 matrix size:     903720
  Task:    50 matrix size:     597648
  Task:    51 matrix size:     381501
  Task:    52 matrix size:     985128
  Task:    53 matrix size:     655580
  Task:    54 matrix size:     616708
  Task:    55 matrix size:     497076
  Integrating Hamiltonian matrix: batch-based integration.
  Time summed over all CPUs for integration: real work      288.697 s, elapsed      574.787 s
  Time get_set_sparse_local_matrix_scalapack:     0.026753 s
  Start compute_balanced_batch_distribution
  Done load balancing, time needed:      0.011 s
  Integrating overlap matrix with loadbalancing
  Time summed over all CPUs for integration: real work       83.498 s, elapsed       97.569 s
  Time get_set_full_local_matrix_scalapack:     0.030636 s

  Updating Kohn-Sham eigenvalues and eigenvectors using ELSI and the ELPA eigensolver.
  Overlap matrix is not singular
  | Lowest and highest eigenvalues :  0.14E+02,  0.90E-04
  Finished singularity check of overlap matrix
  | Time :     0.176 s
  Finished Cholesky decomposition
  | Time :     0.035 s
  Finished transformation to standard eigenproblem
  | Time :     0.046 s
  Starting ELPA eigensolver
  Finished solving standard eigenproblem
  | Time :     0.173 s
  Finished back-transformation of eigenvectors
  | Time :     0.008 s

  Obtaining occupation numbers and chemical potential using ELSI.
  | Chemical potential (Fermi level):    -7.89954498 eV
  Writing Kohn-Sham eigenvalues.

  State    Occupation    Eigenvalue [Ha]    Eigenvalue [eV]
      1       2.00000         -10.173167         -276.82596
      2       2.00000         -10.173167         -276.82596
      3       2.00000         -10.172872         -276.81793
      4       2.00000         -10.172872         -276.81793
      5       2.00000         -10.172630         -276.81134
      6       2.00000         -10.172630         -276.81134
      7       2.00000         -10.172456         -276.80662
      8       2.00000         -10.172456         -276.80662
      9       2.00000         -10.172042         -276.79535
     10       2.00000         -10.172042         -276.79535
     11       2.00000         -10.171935         -276.79244
     12       2.00000         -10.171935         -276.79244
     13       2.00000         -10.171846         -276.79001
     14       2.00000         -10.171846         -276.79000
     15       2.00000         -10.171515         -276.78101
     16       2.00000         -10.171515         -276.78101
     17       2.00000         -10.171410         -276.77816
     18       2.00000         -10.171410         -276.77816
     19       2.00000         -10.171356         -276.77668
     20       2.00000         -10.171356         -276.77667
     21       2.00000         -10.171056         -276.76852
     22       2.00000         -10.171056         -276.76852
     23       2.00000         -10.170788         -276.76122
     24       2.00000         -10.170788         -276.76122
     25       2.00000         -10.170127         -276.74324
     26       2.00000         -10.170127         -276.74323
     27       2.00000         -10.170011         -276.74008
     28       2.00000         -10.170011         -276.74008
     29       2.00000         -10.165249         -276.61050
     30       2.00000         -10.165249         -276.61050
     31       2.00000         -10.164578         -276.59224
     32       2.00000         -10.164578         -276.59223
     33       2.00000         -10.163727         -276.56908
     34       2.00000         -10.163727         -276.56908
     35       2.00000         -10.163296         -276.55735
     36       2.00000         -10.163296         -276.55735
     37       2.00000         -10.158422         -276.42473
     38       2.00000         -10.158390         -276.42386
     39       2.00000         -10.158061         -276.41490
     40       2.00000         -10.157880         -276.40998
     41       2.00000         -10.156871         -276.38252
     42       2.00000         -10.156867         -276.38241
     43       2.00000          -1.015998          -27.64671
     44       2.00000          -1.003161          -27.29739
     45       2.00000          -1.002187          -27.27091
     46       2.00000          -0.996565          -27.11790
     47       2.00000          -0.993462          -27.03349
     48       2.00000          -0.989207          -26.91769
     49       2.00000          -0.963458          -26.21702
     50       2.00000          -0.936446          -25.48199
     51       2.00000          -0.930666          -25.32470
     52       2.00000          -0.918500          -24.99365
     53       2.00000          -0.893056          -24.30128
     54       2.00000          -0.887314          -24.14505
     55       2.00000          -0.887242          -24.14307
     56       2.00000          -0.886040          -24.11038
     57       2.00000          -0.885440          -24.09406
     58       2.00000          -0.884707          -24.07410
     59       2.00000          -0.883762          -24.04838
     60       2.00000          -0.881257          -23.98023
     61       2.00000          -0.870735          -23.69391
     62       2.00000          -0.858331          -23.35636
     63       2.00000          -0.830714          -22.60487
     64       2.00000          -0.797472          -21.70033
     65       2.00000          -0.772821          -21.02954
     66       2.00000          -0.769243          -20.93217
     67       2.00000          -0.757399          -20.60988
     68       2.00000          -0.750953          -20.43447
     69       2.00000          -0.750306          -20.41686
     70       2.00000          -0.748112          -20.35716
     71       2.00000          -0.747130          -20.33044
     72       2.00000          -0.743738          -20.23813
     73       2.00000          -0.743610          -20.23465
     74       2.00000          -0.742232          -20.19717
     75       2.00000          -0.714537          -19.44354
     76       2.00000          -0.705945          -19.20974
     77       2.00000          -0.700870          -19.07163
     78       2.00000          -0.672434          -18.29785
     79       2.00000          -0.669145          -18.20835
     80       2.00000          -0.661194          -17.99200
     81       2.00000          -0.653977          -17.79562
     82       2.00000          -0.648860          -17.65638
     83       2.00000          -0.637647          -17.35125
     84       2.00000          -0.635640          -17.29666
     85       2.00000          -0.631272          -17.17779
     86       2.00000          -0.630738          -17.16324
     87       2.00000          -0.630029          -17.14397
     88       2.00000          -0.629554          -17.13102
     89       2.00000          -0.623436          -16.96455
     90       2.00000          -0.623102          -16.95547
     91       2.00000          -0.597494          -16.25863
     92       2.00000          -0.590397          -16.06552
     93       2.00000          -0.586845          -15.96887
     94       2.00000          -0.581581          -15.82562
     95       2.00000          -0.577083          -15.70321
     96       2.00000          -0.575941          -15.67216
     97       2.00000          -0.574266          -15.62659
     98       2.00000          -0.573450          -15.60438
     99       2.00000          -0.569662          -15.50129
    100       2.00000          -0.569391          -15.49393
    101       2.00000          -0.567165          -15.43335
    102       2.00000          -0.566281          -15.40928
    103       2.00000          -0.565606          -15.39094
    104       2.00000          -0.565237          -15.38089
    105       2.00000          -0.565124          -15.37782
    106       2.00000          -0.564230          -15.35348
    107       2.00000          -0.542157          -14.75284
    108       2.00000          -0.524341          -14.26805
    109       2.00000          -0.521635          -14.19441
    110       2.00000          -0.518877          -14.11937
    111       2.00000          -0.514793          -14.00823
    112       2.00000          -0.512927          -13.95745
    113       2.00000          -0.510053          -13.87926
    114       2.00000          -0.508342          -13.83268
    115       2.00000          -0.506826          -13.79145
    116       2.00000          -0.505931          -13.76709
    117       2.00000          -0.505249          -13.74853
    118       2.00000          -0.498093          -13.55381
    119       2.00000          -0.497043          -13.52524
    120       2.00000          -0.496419          -13.50824
    121       2.00000          -0.495789          -13.49110
    122       2.00000          -0.490385          -13.34406
    123       2.00000          -0.487437          -13.26383
    124       2.00000          -0.485541          -13.21223
    125       2.00000          -0.475860          -12.94880
    126       2.00000          -0.469901          -12.78667
    127       2.00000          -0.432086          -11.75765
    128       2.00000          -0.429677          -11.69209
    129       2.00000          -0.424710          -11.55695
    130       2.00000          -0.414237          -11.27196
    131       2.00000          -0.411049          -11.18522
    132       2.00000          -0.409119          -11.13270
    133       2.00000          -0.408968          -11.12857
    134       2.00000          -0.400475          -10.89747
    135       2.00000          -0.400093          -10.88708
    136       2.00000          -0.394221          -10.72729
    137       2.00000          -0.388886          -10.58214
    138       2.00000          -0.385154          -10.48059
    139       2.00000          -0.380952          -10.36623
    140       2.00000          -0.336422           -9.15451
    141       0.00000          -0.276761           -7.53104
    142       0.00000          -0.225948           -6.14836
    143       0.00000          -0.224608           -6.11189
    144       0.00000          -0.221334           -6.02280
    145       0.00000          -0.220010           -5.98678
    146       0.00000          -0.214801           -5.84504
    147       0.00000          -0.211393           -5.75230
    148       0.00000          -0.208349           -5.66947
    149       0.00000          -0.207859           -5.65612
    150       0.00000          -0.206283           -5.61324
    151       0.00000          -0.200374           -5.45245
    152       0.00000          -0.184694           -5.02577
    153       0.00000          -0.173036           -4.70855
    154       0.00000          -0.168404           -4.58251
    155       0.00000          -0.108412           -2.95004
    156       0.00000          -0.083446           -2.27067
    157       0.00000          -0.079615           -2.16644
    158       0.00000          -0.078029           -2.12328
    159       0.00000          -0.074451           -2.02591
    160       0.00000          -0.074104           -2.01648
    161       0.00000          -0.069204           -1.88313
    162       0.00000          -0.064631           -1.75870
    163       0.00000          -0.062712           -1.70647
    164       0.00000          -0.062350           -1.69663
    165       0.00000          -0.059237           -1.61193
    166       0.00000          -0.058676           -1.59666
    167       0.00000          -0.048823           -1.32855
    168       0.00000          -0.047531           -1.29340
    169       0.00000          -0.043845           -1.19307
    170       0.00000          -0.042020           -1.14342
    171       0.00000          -0.036903           -1.00417
    172       0.00000          -0.030445           -0.82845
    173       0.00000          -0.029267           -0.79640
    174       0.00000          -0.028198           -0.76731
    175       0.00000          -0.024466           -0.66574
    176       0.00000          -0.022483           -0.61179
    177       0.00000          -0.017089           -0.46502
    178       0.00000          -0.015976           -0.43473
    179       0.00000          -0.014431           -0.39269
    180       0.00000          -0.013950           -0.37960
    181       0.00000          -0.007748           -0.21083
    182       0.00000          -0.005532           -0.15052
    183       0.00000          -0.004329           -0.11781
    184       0.00000          -0.003242           -0.08823
    185       0.00000           0.003665            0.09972
    186       0.00000           0.004660            0.12681
    187       0.00000           0.005893            0.16037
    188       0.00000           0.008730            0.23757
    189       0.00000           0.010058            0.27370
    190       0.00000           0.012535            0.34111
    191       0.00000           0.013566            0.36916
    192       0.00000           0.015509            0.42203
    193       0.00000           0.018894            0.51414
    194       0.00000           0.026919            0.73249
    195       0.00000           0.035735            0.97240
    196       0.00000           0.038543            1.04880
    197       0.00000           0.039185            1.06628
    198       0.00000           0.046380            1.26207
    199       0.00000           0.047714            1.29837
    200       0.00000           0.047741            1.29911
    201       0.00000           0.050903            1.38514
    202       0.00000           0.050945            1.38627
    203       0.00000           0.053045            1.44342
    204       0.00000           0.054543            1.48419
    205       0.00000           0.056738            1.54393
    206       0.00000           0.058466            1.59094
    207       0.00000           0.059839            1.62829
    208       0.00000           0.062835            1.70983
    209       0.00000           0.064485            1.75473
    210       0.00000           0.066258            1.80297
    211       0.00000           0.070089            1.90721
    212       0.00000           0.072029            1.96000
    213       0.00000           0.072671            1.97748
    214       0.00000           0.074371            2.02373
    215       0.00000           0.074520            2.02779
    216       0.00000           0.077127            2.09873
    217       0.00000           0.077149            2.09933
    218       0.00000           0.082245            2.23799
    219       0.00000           0.083954            2.28450
    220       0.00000           0.084196            2.29109
    221       0.00000           0.085092            2.31546
    222       0.00000           0.085287            2.32079
    223       0.00000           0.086727            2.35997
    224       0.00000           0.089994            2.44886
    225       0.00000           0.091175            2.48100
    226       0.00000           0.092618            2.52027
    227       0.00000           0.100240            2.72767
    228       0.00000           0.100353            2.73074
    229       0.00000           0.101331            2.75737
    230       0.00000           0.104581            2.84578
    231       0.00000           0.107996            2.93871
    232       0.00000           0.110291            3.00118
    233       0.00000           0.110362            3.00310
    234       0.00000           0.111419            3.03188
    235       0.00000           0.111664            3.03854
    236       0.00000           0.113522            3.08908
    237       0.00000           0.114834            3.12478
    238       0.00000           0.117967            3.21003
    239       0.00000           0.119104            3.24098
    240       0.00000           0.120723            3.28503
    241       0.00000           0.121143            3.29646
    242       0.00000           0.121902            3.31714
    243       0.00000           0.127007            3.45604
    244       0.00000           0.130239            3.54398
    245       0.00000           0.132334            3.60098
    246       0.00000           0.133063            3.62082
    247       0.00000           0.133960            3.64523
    248       0.00000           0.139729            3.80223
    249       0.00000           0.140020            3.81013
    250       0.00000           0.140848            3.83267
    251       0.00000           0.142431            3.87575
    252       0.00000           0.142594            3.88018
    253       0.00000           0.146956            3.99888
    254       0.00000           0.150997            4.10884
    255       0.00000           0.152273            4.14355
    256       0.00000           0.155171            4.22241
    257       0.00000           0.156951            4.27084
    258       0.00000           0.158769            4.32031
    259       0.00000           0.160594            4.36999
    260       0.00000           0.163386            4.44596
    261       0.00000           0.163744            4.45571
    262       0.00000           0.165494            4.50331
    263       0.00000           0.167477            4.55727
    264       0.00000           0.168643            4.58902
    265       0.00000           0.173504            4.72127
    266       0.00000           0.173666            4.72569
    267       0.00000           0.176206            4.79480
    268       0.00000           0.178540            4.85833
    269       0.00000           0.183480            4.99276
    270       0.00000           0.184285            5.01464
    271       0.00000           0.184991            5.03386
    272       0.00000           0.186295            5.06934
    273       0.00000           0.187625            5.10554
    274       0.00000           0.190639            5.18755
    275       0.00000           0.192060            5.22623
    276       0.00000           0.194265            5.28622
    277       0.00000           0.200462            5.45486
    278       0.00000           0.200687            5.46096
    279       0.00000           0.202195            5.50200
    280       0.00000           0.202369            5.50674
    281       0.00000           0.204540            5.56582
    282       0.00000           0.205099            5.58101
    283       0.00000           0.206742            5.62573
    284       0.00000           0.208197            5.66532
    285       0.00000           0.217019            5.90538
    286       0.00000           0.217147            5.90886
    287       0.00000           0.219972            5.98573
    288       0.00000           0.222479            6.05395
    289       0.00000           0.225963            6.14878
    290       0.00000           0.230306            6.26695
    291       0.00000           0.231052            6.28725
    292       0.00000           0.232656            6.33089
    293       0.00000           0.235606            6.41116
    294       0.00000           0.236353            6.43149
    295       0.00000           0.240451            6.54300
    296       0.00000           0.242129            6.58867
    297       0.00000           0.242395            6.59591
    298       0.00000           0.243345            6.62176
    299       0.00000           0.247154            6.72540
    300       0.00000           0.250368            6.81285
    301       0.00000           0.259186            7.05282
    302       0.00000           0.259544            7.06256
    303       0.00000           0.263855            7.17986
    304       0.00000           0.271036            7.37528
    305       0.00000           0.271216            7.38018
    306       0.00000           0.275730            7.50299
    307       0.00000           0.276050            7.51171
    308       0.00000           0.281433            7.65818

  Highest occupied state (VBM) at     -9.15451337 eV
  | Occupation number:      2.00000000

  Lowest unoccupied state (CBM) at    -7.53104306 eV
  | Occupation number:      0.00000000

  Overall HOMO-LUMO gap:      1.62347031 eV.
  Calculating total energy contributions from superposition of free atom densities.

  Total energy components:
  | Sum of eigenvalues            :        -980.25931524 Ha      -26674.21313679 eV
  | XC energy correction          :        -232.34622822 Ha       -6322.46255325 eV
  | XC potential correction       :         298.45458110 Ha        8121.36236222 eV
  | Free-atom electrostatic energy:        -704.48465766 Ha      -19170.00289405 eV
  | Hartree energy correction     :           0.00000000 Ha           0.00000000 eV
  | Entropy correction            :           0.00000000 Ha           0.00000000 eV
  | ---------------------------
  | Total energy                  :       -1618.63562002 Ha      -44045.31622189 eV
  | Total energy, T -> 0          :       -1618.63562002 Ha      -44045.31622189 eV  <-- do not rely on this value for anything but (periodic) metals
  | Electronic free energy        :       -1618.63562002 Ha      -44045.31622189 eV

  Derived energy quantities:
  | Kinetic energy                :        1602.91735746 Ha       43617.60053546 eV
  | Electrostatic energy          :       -2989.20674926 Ha      -81340.45420409 eV
  | Energy correction for multipole
  | error in Hartree potential    :           0.00000000 Ha           0.00000000 eV
  | Sum of eigenvalues per atom                           :        -381.06018767 eV
  | Total energy (T->0) per atom                          :        -629.21880317 eV  <-- do not rely on this value for anything but (periodic) metals
  | Electronic free energy per atom                       :        -629.21880317 eV
  Initialize hartree_potential_storage
  Max. number of atoms included in rho_multipole:           70

  End scf initialization - timings             :  max(cpu_time)    wall_clock(cpu1)
  | Time for scf. initialization               :       15.934 s          16.037 s
  | Boundary condition initialization          :        0.001 s           0.004 s
  | Integration                                :       12.108 s          12.114 s
  | Solution of K.-S. eqns.                    :        0.463 s           0.521 s
  | Grid partitioning                          :        1.243 s           1.246 s
  | Preloading free-atom quantities on grid    :        0.013 s           0.016 s
  | Free-atom superposition energy             :        0.136 s           0.136 s
  | Total energy evaluation                    :        0.001 s           0.003 s

  Partial memory accounting:
  | Current value for overall tracked memory usage on task 0  :           8.985 MB
  | Peak value for overall tracked memory usage on task 0     :          43.287 MB after allocating zora_vector2
  | Largest tracked array allocation on task 0 so far         :          12.400 MB  when allocating hamiltonian_shell
  Note:  These values currently only include a subset of arrays which are explicitly tracked.
  The "true" memory usage will be greater.
------------------------------------------------------------

------------------------------------------------------------
          Begin self-consistency iteration #    1

  Date     :  20210620, Time     :  174220.588
------------------------------------------------------------
  Evaluating new KS density.
  Integration grid: deviation in total charge (<rho> - N_e) =   0.000000E+00
  Pulay mixing of updated and previous charge densities.

  Evaluating partitioned Hartree potential by multipole expansion.
  | Analytical far-field extrapolation by fixed multipoles:
  | Hartree multipole sum: apparent total charge =   0.724254E-04
  Summing up the Hartree potential with load balancing.
  Time summed over all CPUs for potential: real work       48.795 s, elapsed       81.873 s
  | RMS charge density error from multipole expansion :   0.156797E-01

  Start compute_balanced_batch_distribution
  Done load balancing, time needed:      0.010 s
  Integrating Hamiltonian matrix: batch-based integration with load balancing
  Time summed over all CPUs for integration: real work      316.623 s, elapsed      350.723 s
  Time get_set_full_local_matrix_scalapack:     0.031076 s
  Start compute_balanced_batch_distribution
  Done load balancing, time needed:      0.011 s

  Updating Kohn-Sham eigenvalues and eigenvectors using ELSI and the ELPA eigensolver.
  Finished transformation to standard eigenproblem
  | Time :     0.049 s
  Starting ELPA eigensolver
  Finished solving standard eigenproblem
  | Time :     0.171 s
  Finished back-transformation of eigenvectors
  | Time :     0.008 s

  Obtaining occupation numbers and chemical potential using ELSI.
  | Chemical potential (Fermi level):    -5.46751440 eV
  Writing Kohn-Sham eigenvalues.

  State    Occupation    Eigenvalue [Ha]    Eigenvalue [eV]
      1       2.00000          -9.999121         -272.08991
      2       2.00000          -9.998902         -272.08397
      3       2.00000          -9.991724         -271.88863
      4       2.00000          -9.991723         -271.88863
      5       2.00000          -9.988786         -271.80868
      6       2.00000          -9.988786         -271.80868
      7       2.00000          -9.974991         -271.43332
      8       2.00000          -9.974991         -271.43332
      9       2.00000          -9.974515         -271.42037
     10       2.00000          -9.974515         -271.42036
     11       2.00000          -9.965482         -271.17457
     12       2.00000          -9.965482         -271.17457
     13       2.00000          -9.964547         -271.14913
     14       2.00000          -9.964547         -271.14913
     15       2.00000          -9.941052         -270.50978
     16       2.00000          -9.941052         -270.50978
     17       2.00000          -9.940839         -270.50399
     18       2.00000          -9.940839         -270.50399
     19       2.00000          -9.939687         -270.47264
     20       2.00000          -9.939687         -270.47263
     21       2.00000          -9.939156         -270.45819
     22       2.00000          -9.939156         -270.45818
     23       2.00000          -9.938737         -270.44679
     24       2.00000          -9.938737         -270.44679
     25       2.00000          -9.938447         -270.43889
     26       2.00000          -9.938447         -270.43889
     27       2.00000          -9.937158         -270.40383
     28       2.00000          -9.937158         -270.40383
     29       2.00000          -9.936885         -270.39639
     30       2.00000          -9.936885         -270.39639
     31       2.00000          -9.936706         -270.39152
     32       2.00000          -9.936706         -270.39152
     33       2.00000          -9.936226         -270.37846
     34       2.00000          -9.936226         -270.37846
     35       2.00000          -9.936168         -270.37690
     36       2.00000          -9.936168         -270.37690
     37       2.00000          -9.935743         -270.36532
     38       2.00000          -9.935743         -270.36532
     39       2.00000          -9.935681         -270.36363
     40       2.00000          -9.935681         -270.36363
     41       2.00000          -9.935150         -270.34918
     42       2.00000          -9.935150         -270.34918
     43       2.00000          -0.878488          -23.90489
     44       2.00000          -0.850289          -23.13754
     45       2.00000          -0.841691          -22.90357
     46       2.00000          -0.829588          -22.57424
     47       2.00000          -0.828081          -22.53324
     48       2.00000          -0.822911          -22.39255
     49       2.00000          -0.812719          -22.11522
     50       2.00000          -0.792750          -21.57182
     51       2.00000          -0.779250          -21.20446
     52       2.00000          -0.771088          -20.98238
     53       2.00000          -0.738907          -20.10667
     54       2.00000          -0.729109          -19.84005
     55       2.00000          -0.728594          -19.82604
     56       2.00000          -0.727734          -19.80264
     57       2.00000          -0.727542          -19.79742
     58       2.00000          -0.727486          -19.79591
     59       2.00000          -0.724688          -19.71977
     60       2.00000          -0.724422          -19.71252
     61       2.00000          -0.722233          -19.65296
     62       2.00000          -0.708465          -19.27832
     63       2.00000          -0.679595          -18.49272
     64       2.00000          -0.654703          -17.81538
     65       2.00000          -0.628890          -17.11297
     66       2.00000          -0.625999          -17.03431
     67       2.00000          -0.611775          -16.64724
     68       2.00000          -0.603329          -16.41741
     69       2.00000          -0.602797          -16.40293
     70       2.00000          -0.602322          -16.39003
     71       2.00000          -0.599058          -16.30119
     72       2.00000          -0.598549          -16.28734
     73       2.00000          -0.593754          -16.15686
     74       2.00000          -0.591680          -16.10043
     75       2.00000          -0.569428          -15.49494
     76       2.00000          -0.562087          -15.29515
     77       2.00000          -0.558805          -15.20586
     78       2.00000          -0.537777          -14.63367
     79       2.00000          -0.529195          -14.40014
     80       2.00000          -0.526047          -14.31447
     81       2.00000          -0.519423          -14.13422
     82       2.00000          -0.510895          -13.90217
     83       2.00000          -0.503792          -13.70889
     84       2.00000          -0.503330          -13.69631
     85       2.00000          -0.487715          -13.27139
     86       2.00000          -0.470433          -12.80115
[...]
    138       2.00000          -0.209708           -5.70643
    139       2.00000          -0.207877           -5.65661
    140       2.00000          -0.165472           -4.50271
    141       0.00000          -0.108993           -2.96586
    142       0.00000          -0.057173           -1.55575
    143       0.00000          -0.056569           -1.53933
    144       0.00000          -0.051105           -1.39064
    145       0.00000          -0.049846           -1.35638
    146       0.00000          -0.043877           -1.19395
    147       0.00000          -0.040554           -1.10352
    148       0.00000          -0.037070           -1.00873
    149       0.00000          -0.035922           -0.97749
    150       0.00000          -0.034835           -0.94790
    151       0.00000          -0.027559           -0.74993
    152       0.00000          -0.015862           -0.43163
    153       0.00000          -0.011630           -0.31648
    154       0.00000          -0.008151           -0.22179
    155       0.00000          -0.004566           -0.12425
    156       0.00000           0.000081            0.00220
    157       0.00000           0.003768            0.10254
    158       0.00000           0.006262            0.17039
    159       0.00000           0.007714            0.20991
    160       0.00000           0.010750            0.29253
    161       0.00000           0.011208            0.30497
    162       0.00000           0.014496            0.39446
    163       0.00000           0.020810            0.56626
    164       0.00000           0.026121            0.71080
    165       0.00000           0.028642            0.77940
    166       0.00000           0.031158            0.84784
    167       0.00000           0.036864            1.00313
    168       0.00000           0.038378            1.04432
    169       0.00000           0.041998            1.14282
    170       0.00000           0.044187            1.20238
    171       0.00000           0.046411            1.26290
    172       0.00000           0.052732            1.43491
    173       0.00000           0.056353            1.53343
    174       0.00000           0.059394            1.61619
    175       0.00000           0.062816            1.70931
    176       0.00000           0.063110            1.71732
    177       0.00000           0.065101            1.77149
    178       0.00000           0.073155            1.99065
    179       0.00000           0.073545            2.00127
    180       0.00000           0.076977            2.09465
    181       0.00000           0.080698            2.19590
    182       0.00000           0.083707            2.27779
    183       0.00000           0.092917            2.52841
    184       0.00000           0.096986            2.63912
    185       0.00000           0.097976            2.66606
    186       0.00000           0.099764            2.71471
    187       0.00000           0.106766            2.90524
    188       0.00000           0.111480            3.03354
    189       0.00000           0.112764            3.06848
    190       0.00000           0.119416            3.24946
    191       0.00000           0.123706            3.36622
    192       0.00000           0.129500            3.52389
    193       0.00000           0.132443            3.60395
    194       0.00000           0.134786            3.66771
    195       0.00000           0.135003            3.67362
    196       0.00000           0.138599            3.77148
    197       0.00000           0.139872            3.80612
    198       0.00000           0.145471            3.95845
    199       0.00000           0.150217            4.08762
    200       0.00000           0.152542            4.15087
    201       0.00000           0.152781            4.15739
    202       0.00000           0.156428            4.25663
    203       0.00000           0.156445            4.25708
    204       0.00000           0.158017            4.29987
    205       0.00000           0.160826            4.37629
    206       0.00000           0.163370            4.44553
    207       0.00000           0.163620            4.45232
    208       0.00000           0.166408            4.52819
    209       0.00000           0.168536            4.58611
    210       0.00000           0.171519            4.66727
    211       0.00000           0.173731            4.72745
    212       0.00000           0.175517            4.77606
    213       0.00000           0.177581            4.83222
    214       0.00000           0.179223            4.87689
    215       0.00000           0.181300            4.93344
    216       0.00000           0.181399            4.93613
    217       0.00000           0.183333            4.98876
    218       0.00000           0.190790            5.19167
    219       0.00000           0.194292            5.28695
    220       0.00000           0.196008            5.33365
    221       0.00000           0.196028            5.33419
    222       0.00000           0.197601            5.37701
    223       0.00000           0.199666            5.43318
    224       0.00000           0.203114            5.52701
    225       0.00000           0.204117            5.55430
    226       0.00000           0.207723            5.65244
    227       0.00000           0.207763            5.65351
    228       0.00000           0.210171            5.71903
    229       0.00000           0.212133            5.77243
    230       0.00000           0.213174            5.80077
    231       0.00000           0.217793            5.92644
    232       0.00000           0.218431            5.94382
    233       0.00000           0.219384            5.96975
    234       0.00000           0.220800            6.00828
    235       0.00000           0.222631            6.05811
    236       0.00000           0.224094            6.09792
    237       0.00000           0.224523            6.10958
    238       0.00000           0.226323            6.15857
    239       0.00000           0.226797            6.17146
    240       0.00000           0.229565            6.24679
    241       0.00000           0.230386            6.26912
    242       0.00000           0.231433            6.29760
    243       0.00000           0.233377            6.35052
    244       0.00000           0.236301            6.43008
    245       0.00000           0.240075            6.53277
    246       0.00000           0.240361            6.54057
    247       0.00000           0.242634            6.60242
    248       0.00000           0.243397            6.62317
    249       0.00000           0.245318            6.67545
    250       0.00000           0.246281            6.70164
    251       0.00000           0.248203            6.75394
    252       0.00000           0.253274            6.89193
    253       0.00000           0.255262            6.94602
    254       0.00000           0.256282            6.97378
    255       0.00000           0.257898            7.01777
    256       0.00000           0.261600            7.11850
    257       0.00000           0.262623            7.14633
    258       0.00000           0.263315            7.16516
    259       0.00000           0.267851            7.28861
    260       0.00000           0.269969            7.34622
    261       0.00000           0.271043            7.37544
    262       0.00000           0.274347            7.46535
    263       0.00000           0.276777            7.53148
    264       0.00000           0.276816            7.53256
    265       0.00000           0.281330            7.65538
    266       0.00000           0.282433            7.68539
    267       0.00000           0.282789            7.69507
    268       0.00000           0.285746            7.77554
    269       0.00000           0.293210            7.97865
    270       0.00000           0.294165            8.00463
    271       0.00000           0.295954            8.05331
    272       0.00000           0.296256            8.06154
    273       0.00000           0.303936            8.27051
    274       0.00000           0.305004            8.29958
    275       0.00000           0.306288            8.33451
    276       0.00000           0.307115            8.35702
    277       0.00000           0.310311            8.44400
    278       0.00000           0.315711            8.59094
    279       0.00000           0.316269            8.60611
    280       0.00000           0.318528            8.66760
    281       0.00000           0.321589            8.75089
    282       0.00000           0.322751            8.78250
    283       0.00000           0.326041            8.87203
    284       0.00000           0.329157            8.95682
    285       0.00000           0.330912            9.00456
    286       0.00000           0.333922            9.08648
    287       0.00000           0.335465            9.12848
    288       0.00000           0.340013            9.25222
    289       0.00000           0.341364            9.28898
    290       0.00000           0.343525            9.34780
    291       0.00000           0.344812            9.38280
    292       0.00000           0.348851            9.49272
    293       0.00000           0.350241            9.53054
    294       0.00000           0.352387            9.58893
    295       0.00000           0.355686            9.67871
    296       0.00000           0.360337            9.80528
    297       0.00000           0.367340            9.99582
    298       0.00000           0.368005           10.01392
    299       0.00000           0.369032           10.04187
    300       0.00000           0.370755           10.08875
    301       0.00000           0.375490           10.21760
    302       0.00000           0.378372           10.29602
    303       0.00000           0.384701           10.46826
    304       0.00000           0.387570           10.54632
    305       0.00000           0.389645           10.60279
    306       0.00000           0.393379           10.70439
    307       0.00000           0.395576           10.76417
    308       0.00000           0.396720           10.79530

  Highest occupied state (VBM) at     -4.50271483 eV
  | Occupation number:      2.00000000

  Lowest unoccupied state (CBM) at    -2.96586252 eV
  | Occupation number:      0.00000000

  Overall HOMO-LUMO gap:      1.53685232 eV.

  Total energy components:
  | Sum of eigenvalues            :        -918.99040865 Ha      -25007.00136154 eV
  | XC energy correction          :        -236.78619943 Ha       -6443.28031709 eV
  | XC potential correction       :         304.18437173 Ha        8277.27789800 eV
  | Free-atom electrostatic energy:        -704.48465766 Ha      -19170.00289405 eV
  | Hartree energy correction     :         -60.53346459 Ha       -1647.19938021 eV
  | Entropy correction            :           0.00000000 Ha           0.00000000 eV
  | ---------------------------
  | Total energy                  :       -1616.61035861 Ha      -43990.20605490 eV
  | Total energy, T -> 0          :       -1616.61035861 Ha      -43990.20605490 eV  <-- do not rely on this value for anything but (periodic) metals
  | Electronic free energy        :       -1616.61035861 Ha      -43990.20605490 eV

  Derived energy quantities:
  | Kinetic energy                :        1612.26262321 Ha       43871.89815525 eV
  | Electrostatic energy          :       -2992.08678239 Ha      -81418.82389306 eV
  | Energy correction for multipole
  | error in Hartree potential    :          -0.19425302 Ha          -5.28589368 eV
  | Sum of eigenvalues per atom                           :        -357.24287659 eV
  | Total energy (T->0) per atom                          :        -628.43151507 eV  <-- do not rely on this value for anything but (periodic) metals
  | Electronic free energy per atom                       :        -628.43151507 eV
  End evaluation of scaled ZORA corrections.
  | Time for scaled ZORA corrections           :       11.710 s          11.722 s
------------------------------------------------------------

  Energy and forces in a compact form:
  | Total energy uncorrected      :         -0.439902060548956E+05 eV
  | Total energy corrected        :         -0.439902060548956E+05 eV  <-- do not rely on this value for anything but (periodic) metals
  | Electronic free energy        :         -0.439902060548956E+05 eV

  ------------------------------------ 
  Start decomposition of the XC Energy 
  ------------------------------------ 
  X and C from original XC functional choice 
  Hartree-Fock Energy :          0.000000000 Ha              0.000000000 eV
  X Energy            :       -227.415775992 Ha          -6188.298121874 eV
  C Energy            :         -9.370423442 Ha           -254.982195213 eV
  Total XC Energy     :       -236.786199434 Ha          -6443.280317088 eV
  ------------------------------------ 
  LDA X and C from self-consistent density 
  X Energy LDA        :       -205.969259182 Ha          -5604.708706775 eV
  C Energy LDA        :        -18.040345685 Ha           -490.902782958 eV
  ------------------------------------ 
  End decomposition of the XC Energy 
  ------------------------------------ 

------------------------------------------------------------

------------------------------------------------------------------------------
  Final output of selected total energy values:

  The following output summarizes some interesting total energy values
  at the end of a run (AFTER all relaxation, molecular dynamics, etc.).

  | Total energy of the DFT / Hartree-Fock s.c.f. calculation      :         -43990.206054896 eV
  | Final zero-broadening corrected energy (caution - metals only) :         -43990.206054896 eV
  | For reference only, the value of 1 Hartree used in FHI-aims is :             27.211384500 eV

  Before relying on these values, please be sure to understand exactly which
  total energy value is referred to by a given number. Different objects may
  all carry the same name 'total energy'. Definitions:

  Total energy of the DFT / Hartree-Fock s.c.f. calculation:
  | Note that this energy does not include ANY quantities calculated after the
  | s.c.f. cycle, in particular not ANY RPA, MP2, etc. many-body perturbation terms.
  | Scalar relativistic effects have been included in the 'scaled ZORA' approximation.

  Final zero-broadening corrected energy:
  | For metallic systems only, a broadening of the occupation numbers at the Fermi
  | level can be extrapolated back to zero broadening by an electron-gas inspired
  | formula. For all systems that are not real metals, this value can be
  | meaningless and should be avoided.

------------------------------------------------------------------------------
  Methods described in the following list of references were used in this FHI-aims run.
  If you publish the results, please make sure to cite these reference if they apply.
  FHI-aims is an academic code, and for our developers (often, Ph.D. students
  and postdocs), scientific credit in the community is essential.
  Thank you for helping us!

  For any use of FHI-aims, please cite:

    Volker Blum, Ralf Gehrke, Felix Hanke, Paula Havu, Ville Havu,
    Xinguo Ren, Karsten Reuter, and Matthias Scheffler
    'Ab initio molecular simulations with numeric atom-centered orbitals'
    Computer Physics Communications 180, 2175-2196 (2009)
    http://dx.doi.org/10.1016/j.cpc.2009.06.022


  The scalable eigensolver library ELPA was used in your run.
  ELPA is essential especially for large systems on hundreds or thousands of CPUs.
  For ELPA, please cite:

    Andreas Marek, Volker Blum, Rainer Johanni, Ville Havu, Bruno Lang,
    Thomas Auckenthaler, Alexander Heinecke, Hans-Joachim Bungartz, and Hermann Lederer,
    'The ELPA Library - Scalable Parallel Eigenvalue Solutions
    for Electronic Structure Theory and Computational Science'
    The Journal of Physics: Condensed Matter 26, 213201 (2014).
    http://dx.doi.org/10.1088/0953-8984/26/21/213201


  The ELSI infrastructure was used in your run to solve the Kohn-Sham electronic structure.
  Please check out http://elsi-interchange.org to learn more.
  If scalability is important for your project, please acknowledge ELSI by citing:

    V. W-z. Yu, F. Corsetti, A. Garcia, W. P. Huhn, M. Jacquelin, W. Jia,
    B. Lange, L. Lin, J. Lu, W. Mi, A. Seifitokaldani, A. Vazquez-Mayagoitia,
    C. Yang, H. Yang, and V. Blum
    'ELSI: A unified software interface for Kohn-Sham electronic structure solvers'
    Computer Physics Communications 222, 267-285 (2018).
    http://dx.doi.org/10.1016/j.cpc.2017.09.007


  For the real-space grid partitioning and parallelization used in this calculation, please cite:

    Ville Havu, Volker Blum, Paula Havu, and Matthias Scheffler,
    'Efficient O(N) integration for all-electron electronic structure calculation'
    'using numerically tabulated basis functions'
    Journal of Computational Physics 228, 8367-8379 (2009).
    http://dx.doi.org/10.1016/j.jcp.2009.08.008

  Of course, there are many other important community references, e.g., those cited in the
  above references. Our list is limited to references that describe implementations in the
  FHI-aims code. The reason is purely practical (length of this list) - please credit others as well.

------------------------------------------------------------
          Leaving FHI-aims.
          Date     :  20210620, Time     :  174540.429

          Computational steps:
          | Number of self-consistency cycles          :           19
          | Number of SCF (re)initializations          :            1

          Detailed time accounting                     :  max(cpu_time)    wall_clock(cpu1)
          | Total time                                 :      216.019 s         216.252 s
          | Preparation time                           :        0.197 s           0.198 s
          | Boundary condition initalization           :        0.001 s           0.004 s
          | Grid partitioning                          :        1.243 s           1.246 s
          | Preloading free-atom quantities on grid    :        0.013 s           0.016 s
          | Free-atom superposition energy             :        0.136 s           0.136 s
          | Total time for integrations                :      124.803 s         124.809 s
          | Total time for solution of K.-S. equations :        6.333 s           6.399 s
          | Total time for density update              :       49.334 s          49.272 s
          | Total time for mixing                      :        0.222 s           0.226 s
          | Total time for Hartree multipole update    :        0.258 s           0.263 s
          | Total time for Hartree multipole sum       :       19.519 s          19.525 s
          | Total time for total energy evaluation     :        0.010 s           0.032 s
          | Total time for scaled ZORA corrections     :       11.710 s          11.722 s

          Partial memory accounting:
          | Residual value for overall tracked memory usage across tasks :     0.000000 MB (should be 0.000000 MB)
          | Peak values for overall tracked memory usage (after allocating zora_vector2):
          |   Minimum:       41.206 MB (on task 42)
          |   Maximum:       54.429 MB (on task 30)
          |   Average:       46.663 MB
          | Largest tracked array allocation (hamiltonian_shell):
          |   Minimum:       12.400 MB (on task  1)
          |   Maximum:       12.400 MB (on task  1)
          |   Average:       12.400 MB
          Note:  These values currently only include a subset of arrays which are explicitly tracked.
          The "true" memory usage will be greater.

          Have a nice day.
------------------------------------------------------------
