  MPI-parallelism will be employed.
------------------------------------------------------------
          Invoking FHI-aims ...
          Version 180607
          Git rev. (modified): 6724847 Fix JSON memory corruption in scf_solver
          Compiled on 2018/06/27 at 16:00:31 on host coe.psc.edu.

          When using FHI-aims, please cite the following reference:

          Volker Blum, Ralf Gehrke, Felix Hanke, Paula Havu,
          Ville Havu, Xinguo Ren, Karsten Reuter, and Matthias Scheffler,
          'Ab Initio Molecular Simulations with Numeric Atom-Centered Orbitals',
          Computer Physics Communications 180, 2175-2196 (2009)

          For any questions about FHI-aims, please visit the aimsclub website
          with its forums and wiki. Contributions to both the forums and the
          wiki are warmly encouraged - they are for you, and everyone is welcome there.

------------------------------------------------------------



  Date     :  20210620, Time     :  160858.320
  Time zero on CPU 1             :   0.289221000000000E+00  s.
  Internal wall clock time zero  :           393437338.320  s.

  FHI-aims created a unique identifier for this run for later identification
  aims_uuid : EA84A122-D110-413C-A100-AFDF0CDC34F1

  Using       56 parallel tasks.
  Task        0 on host d030 reporting.
  Task        1 on host d030 reporting.
  Task        2 on host d030 reporting.
  Task        3 on host d030 reporting.
  Task        4 on host d030 reporting.
  Task        5 on host d030 reporting.
  Task        6 on host d030 reporting.
  Task        7 on host d030 reporting.
  Task        8 on host d030 reporting.
  Task        9 on host d030 reporting.
  Task       10 on host d030 reporting.
  Task       11 on host d030 reporting.
  Task       12 on host d030 reporting.
  Task       13 on host d030 reporting.
  Task       14 on host d030 reporting.
  Task       15 on host d030 reporting.
  Task       16 on host d030 reporting.
  Task       17 on host d030 reporting.
  Task       18 on host d030 reporting.
  Task       19 on host d030 reporting.
  Task       20 on host d030 reporting.
  Task       21 on host d030 reporting.
  Task       22 on host d030 reporting.
  Task       23 on host d030 reporting.
  Task       24 on host d030 reporting.
  Task       25 on host d030 reporting.
  Task       26 on host d030 reporting.
  Task       27 on host d030 reporting.
  Task       28 on host d030 reporting.
  Task       29 on host d030 reporting.
  Task       30 on host d030 reporting.
  Task       31 on host d030 reporting.
  Task       32 on host d030 reporting.
  Task       33 on host d030 reporting.
  Task       34 on host d030 reporting.
  Task       35 on host d030 reporting.
  Task       36 on host d030 reporting.
  Task       37 on host d030 reporting.
  Task       38 on host d030 reporting.
  Task       39 on host d030 reporting.
  Task       40 on host d030 reporting.
  Task       41 on host d030 reporting.
  Task       42 on host d030 reporting.
  Task       43 on host d030 reporting.
  Task       44 on host d030 reporting.
  Task       45 on host d030 reporting.
  Task       46 on host d030 reporting.
  Task       47 on host d030 reporting.
  Task       48 on host d030 reporting.
  Task       49 on host d030 reporting.
  Task       50 on host d030 reporting.
  Task       51 on host d030 reporting.
  Task       52 on host d030 reporting.
  Task       53 on host d030 reporting.
  Task       54 on host d030 reporting.
  Task       55 on host d030 reporting.

  Performing system and environment tests:
  *** Environment variable OMP_NUM_THREADS is not set
  *** For performance reasons you might want to set it to 1
  | Stacksize not measured: no C compiler
  | Checking for scalapack...
  | Testing pdtran()...
  | All pdtran() tests passed.

  Obtaining array dimensions for all initial allocations:
  
  -----------------------------------------------------------------------
  Parsing control.in (first pass over file, find array dimensions only).
  The contents of control.in will be repeated verbatim below
  unless switched off by setting 'verbatim_writeout .false.' .
  in the first line of control.in .
  -----------------------------------------------------------------------
  
  #===============================================================================
  # FHI-aims file: ./Runs/es/control.in
  # Created using the Atomic Simulation Environment (ASE)
  # Mon Jan 13 16:04:38 2020
  #===============================================================================
  xc                                 pbe
  relativistic                       zora scalar 1e-12
  occupation_type                    gaussian 0.0001
  load_balancing                     .true.
  KS_method                          scalapack_fast
  mixer                              pulay
  n_max_pulay                        5
  charge_mix_param                   0.4
  sc_accuracy_etot                   1e-6
  sc_accuracy_eev                    1e-4
  sc_accuracy_rho                    1e-6
  sc_iter_limit                      100
  prodbas_threshold                  1e-4
  basis_threshold                    1e-5
  override_illconditioning           .true.
  use_logsbt                         .true.
  spin                               none
  charge                             0
  #===============================================================================
  
  ################################################################################
  #
  #  FHI-aims code project
  # Volker Blum, Fritz Haber Institute Berlin, 2009
  #
  #  Suggested "tight" defaults for H atom (to be pasted into control.in file)
  #
  ################################################################################
    species        H
  #     global species definitions
      nucleus             1
      mass                1.00794
  #
      l_hartree           6
  #
      cut_pot             4.0  2.0  1.0
      basis_dep_cutoff    1e-4
  #
      radial_base         24 7.0
      radial_multiplier   2
      angular_grids       specified
        division   0.1930   50
        division   0.3175  110
        division   0.4293  194
        division   0.5066  302
        division   0.5626  434
  #      division   0.5922  590
  #      division   0.6227  974
  #      division   0.6868 1202
  #      outer_grid  770
        outer_grid  434
  ################################################################################
  #
  #  Definition of "minimal" basis
  #
  ################################################################################
  #     valence basis states
      valence      1  s   1.
  #     ion occupancy
      ion_occ      1  s   0.5
  ################################################################################
  #
  #  Suggested additional basis functions. For production calculations,
  #  uncomment them one after another (the most important basis functions are
  #  listed first).
  #
  #  Basis constructed for dimers: 0.5 A, 0.7 A, 1.0 A, 1.5 A, 2.5 A
  #
  ################################################################################
  #  "First tier" - improvements: -1014.90 meV to -62.69 meV
       hydro 2 s 2.1
       hydro 2 p 3.5
  #  "Second tier" - improvements: -12.89 meV to -1.83 meV
       hydro 1 s 0.85
       hydro 2 p 3.7
       hydro 2 s 1.2
       hydro 3 d 7
  #  "Third tier" - improvements: -0.25 meV to -0.12 meV
  #     hydro 4 f 11.2
  #     hydro 3 p 4.8
  #     hydro 4 d 9
  #     hydro 3 s 3.2
  ################################################################################
  #
  # For methods that use the localized form of the "resolution of identity" for
  # the two-electron Coulomb operator (RI_method LVL), particularly Hartree-Fock and
  # hybrid density functional calculations, the highest accuracy can be obtained by
  # uncommenting the line beginning with "for_aux"  below, thus adding an extra g radial
  # function to the construction of the product basis set for the expansion.
  # See Ref. New J. Phys. 17, 093020 (2015) for more information, particularly Figs. 1 and 6.
  #
  ################################################################################
  #
  # for_aux hydro 5 g 6.0
  ################################################################################
  #
  #  FHI-aims code project
  # Volker Blum, Fritz Haber Institute Berlin, 2009
  #
  #  Suggested "tight" defaults for C atom (to be pasted into control.in file)
  #
  ################################################################################
    species        C
  #     global species definitions
      nucleus             6
      mass                12.0107
  #
      l_hartree           6
  #
      cut_pot             4.0  2.0  1.0
      basis_dep_cutoff    1e-4
  #
      radial_base         34 7.0
      radial_multiplier   2
      angular_grids specified
        division   0.2187   50
        division   0.4416  110
        division   0.6335  194
        division   0.7727  302
        division   0.8772  434
  #      division   0.9334  590
  #      division   0.9924  770
  #      division   1.0230  974
  #      division   1.5020 1202
  #     outer_grid  974
        outer_grid  434
  ################################################################################
  #
  #  Definition of "minimal" basis
  #
  ################################################################################
  #     valence basis states
      valence      2  s   2.
      valence      2  p   2.
  #     ion occupancy
      ion_occ      2  s   1.
      ion_occ      2  p   1.
  ################################################################################
  #
  #  Suggested additional basis functions. For production calculations,
  #  uncomment them one after another (the most important basis functions are
  #  listed first).
  #
  #  Constructed for dimers: 1.0 A, 1.25 A, 1.5 A, 2.0 A, 3.0 A
  #
  ################################################################################
  #  "First tier" - improvements: -1214.57 meV to -155.61 meV
       hydro 2 p 1.7
       hydro 3 d 6
       hydro 2 s 4.9
  #  "Second tier" - improvements: -67.75 meV to -5.23 meV
       hydro 4 f 9.8
       hydro 3 p 5.2
       hydro 3 s 4.3
       hydro 5 g 14.4
       hydro 3 d 6.2
  #  "Third tier" - improvements: -2.43 meV to -0.60 meV
  #     hydro 2 p 5.6
  #     hydro 2 s 1.4
  #     hydro 3 d 4.9
  #     hydro 4 f 11.2
  #  "Fourth tier" - improvements: -0.39 meV to -0.18 meV
  #     hydro 2 p 2.1
  #     hydro 5 g 16.4
  #     hydro 4 d 13.2
  #     hydro 3 s 13.6
  #     hydro 4 f 17.6
  #  Further basis functions - improvements: -0.08 meV and below
  #     hydro 3 s 2
  #     hydro 3 p 6
  #     hydro 4 d 20
  ################################################################################
  #
  # For methods that use the localized form of the "resolution of identity" for
  # the two-electron Coulomb operator (RI_method LVL), particularly Hartree-Fock and
  # hybrid density functional calculations, the highest accuracy can be obtained by
  # uncommenting the line beginning with "for_aux"  below, thus adding an extra g radial
  # function to the construction of the product basis set for the expansion.
  # See Ref. New J. Phys. 17, 093020 (2015) for more information, particularly Figs. 1 and 6.
  #
  ################################################################################
  #
  # for_aux hydro 5 g 6.0
  
  -----------------------------------------------------------------------
  Completed first pass over input file control.in .
  -----------------------------------------------------------------------
  
  
  -----------------------------------------------------------------------
  Parsing geometry.in (first pass over file, find array dimensions only).
  The contents of geometry.in will be repeated verbatim below
  unless switched off by setting 'verbatim_writeout .false.' .
  in the first line of geometry.in .
  -----------------------------------------------------------------------
  
  #=======================================================
  # FHI-aims file: geometry.in
  # Created using the Atomic Simulation Environment (ASE)
  # Sun Jun 20 15:47:01 2021
  #=======================================================
  atom 17.3668469999999999 17.8542890000000014 21.4655349999999991 H
  atom 17.3373680000000014 18.1766639999999988 20.4245850000000004 C
  atom 16.4253120000000017 17.6067600000000013 19.5393000000000008 C
  atom 18.1961399999999998 19.1758559999999996 19.9833749999999988 C
  atom 15.7474980000000002 16.8207239999999985 19.8708759999999991 H
  atom 16.4038600000000017 18.0241439999999997 18.2166250000000005 C
  atom 18.1746879999999997 19.5932400000000015 18.6606999999999985 C
  atom 18.9106300000000012 19.6217350000000010 20.6743179999999995 H
  atom 15.6893700000000003 17.5782649999999983 17.5256830000000008 H
  atom 17.2626320000000000 19.0233360000000005 17.7754149999999989 C
  atom 18.8525020000000012 20.3792760000000008 18.3291240000000002 H
  atom 17.2331530000000015 19.3457110000000014 16.7344650000000001 H
  
  -----------------------------------------------------------------------
  Completed first pass over input file geometry.in .
  -----------------------------------------------------------------------
  

  Basic array size parameters:
  | Number of species                 :        2
  | Number of atoms                   :       12
  | Max. basis fn. angular momentum   :        4
  | Max. atomic/ionic basis occupied n:        2
  | Max. number of basis fn. types    :        2
  | Max. radial fns per species/type  :        8
  | Max. logarithmic grid size        :     1277
  | Max. radial integration grid size :       69
  | Max. angular integration grid size:      434
  | Max. angular grid division number :        8
  | Radial grid for Hartree potential :     1277
  | Number of spin channels           :        1

------------------------------------------------------------
          Reading file control.in.
------------------------------------------------------------
  XC: Using PBE gradient-corrected functionals.
  Scalar relativistic treatment of kinetic energy: ZORA.
  Threshold value for ZORA:   0.100000E-11
  Occupation type: Gaussian broadening, width =   0.100000E-03 eV.
  Since 'load_balancing .true.' is present in control.in, automatically turning on 'use_local_index .true.'.
  Using load balancing for integrations.
  Kohn-Sham electronic structure solved by the ELSI library.
  Using pulay charge density mixing.
  Pulay mixing - number of memorized iterations:    5
  Charge density mixing - mixing parameter:     0.4000
  Convergence accuracy of total energy:  0.1000E-05
  Convergence accuracy of sum of eigenvalues:  0.1000E-03
  Convergence accuracy of self-consistent charge density:  0.1000E-05
  Maximum number of s.-c. iterations  :   100
  * Ignoring prodbas_threshold
  Threshold for basis singularities:  0.1000E-04
  override_illconditioning: Explicitly overriding any built-in checks for an ill-conditioned overlap matrix.
  *** WARNING: If you use this flag, you should really know what you are doing.
  *** DO NOT keep this flag set by default in all your control.in files.
  Using 1D integrations for auxiliary 2-center integrals.
  Spin treatment: No spin polarisation.
  Charge =   0.000000E+00: Neutral system requested explicitly.
 
  Reading configuration options for species H                   .
  | Found nuclear charge :   1.0000
  | Found atomic mass :    1.00794000000000      amu
  | Found l_max for Hartree potential  :   6
  | Found cutoff potl. onset [A], width [A], scale factor :    4.00000    2.00000    1.00000
  | Threshold for basis-dependent cutoff potential is   0.100000E-03
  | Found data for basic radial integration grid :    24 points, outermost radius =    7.000 A
  | Found multiplier for basic radial grid :   2
  | Found angular grid specification: user-specified.
  | Specified grid contains     6 separate shells.
  | Check grid settings after all constraints further below.
  | Found free-atom valence shell :  1 s   1.000
  | No ionic wave fns used. Skipping ion_occ.
  | Found hydrogenic basis function :  2 s   2.100
  | Found hydrogenic basis function :  2 p   3.500
  | Found hydrogenic basis function :  1 s   0.850
  | Found hydrogenic basis function :  2 p   3.700
  | Found hydrogenic basis function :  2 s   1.200
  | Found hydrogenic basis function :  3 d   7.000
  Species H                   : Missing cutoff potential type.
  Defaulting to exp(1/x)/(1-x)^2 type cutoff potential.
  Species H : No 'logarithmic' tag. Using default grid for free atom:
  | Default logarithmic grid data [bohr] : 0.1000E-03 0.1000E+03 0.1012E+01
  Species H : On-site basis accuracy parameter (for Gram-Schmidt orthonormalisation) not specified.
  Using default value basis_acc =  0.1000000E-03.
  Species H                   : Using default innermost maximum threshold i_radial=  2 for radial functions.
  Species H                   : Default cutoff onset for free atom density etc. : 0.40000000E+01 AA.
  Species H                   : Basic radial grid will be enhanced according to radial_multiplier =   2, to contain    49 grid points.
 
  Reading configuration options for species C                   .
  | Found nuclear charge :   6.0000
  | Found atomic mass :    12.0107000000000      amu
  | Found l_max for Hartree potential  :   6
  | Found cutoff potl. onset [A], width [A], scale factor :    4.00000    2.00000    1.00000
  | Threshold for basis-dependent cutoff potential is   0.100000E-03
  | Found data for basic radial integration grid :    34 points, outermost radius =    7.000 A
  | Found multiplier for basic radial grid :   2
  | Found angular grid specification: user-specified.
  | Specified grid contains     6 separate shells.
  | Check grid settings after all constraints further below.
  | Found free-atom valence shell :  2 s   2.000
  | Found free-atom valence shell :  2 p   2.000
  | No ionic wave fns used. Skipping ion_occ.
  | No ionic wave fns used. Skipping ion_occ.
  | Found hydrogenic basis function :  2 p   1.700
  | Found hydrogenic basis function :  3 d   6.000
  | Found hydrogenic basis function :  2 s   4.900
  | Found hydrogenic basis function :  4 f   9.800
  | Found hydrogenic basis function :  3 p   5.200
  | Found hydrogenic basis function :  3 s   4.300
  | Found hydrogenic basis function :  5 g  14.400
  | Found hydrogenic basis function :  3 d   6.200
  Species C                   : Missing cutoff potential type.
  Defaulting to exp(1/x)/(1-x)^2 type cutoff potential.
  Species C : No 'logarithmic' tag. Using default grid for free atom:
  | Default logarithmic grid data [bohr] : 0.1000E-03 0.1000E+03 0.1012E+01
  Species C : On-site basis accuracy parameter (for Gram-Schmidt orthonormalisation) not specified.
  Using default value basis_acc =  0.1000000E-03.
  Species C                   : Using default innermost maximum threshold i_radial=  2 for radial functions.
  Species C                   : Default cutoff onset for free atom density etc. : 0.40000000E+01 AA.
  Species C                   : Basic radial grid will be enhanced according to radial_multiplier =   2, to contain    69 grid points.
 
  Finished reading input file 'control.in'. Consistency checks are next.
 
  MPI_IN_PLACE appears to work with this MPI implementation.
  | Keeping use_mpi_in_place .true. (see manual).
  Target number of points in a grid batch is not set. Defaulting to  100
  Method for grid partitioning is not set. Defaulting to parallel hash+maxmin partitioning.
  Batch size limit is not set. Defaulting to    200
  By default, will store active basis functions for each batch.
  If in need of memory, prune_basis_once .false. can be used to disable this option.
  communication_type for Hartree potential was not specified.
  Defaulting to calc_hartree .
  Pulay mixer: Number of initial linear mixing iterations not set.
  Defaulting to    0 iterations.
  Work space size for distributed Hartree potential not set.
  Defaulting to   0.200000E+03 MB.
  Algorithm-dependent basis array size parameters:
  | n_max_pulay                         :        5
  Presetting      1001 iterations before the initial mixing cycle
  is restarted anyway using the sc_init_iter criterion / keyword.
  Presetting a factor      1.000 between actual scf density residual
  and density convergence criterion sc_accuracy_rho below which sc_init_iter
  takes no effect.
  Calculation of forces was not defined in control.in. No forces will be calculated.
  Geometry relaxation not requested: no relaxation will be performed.
  No accuracy limit for integral partition fn. given. Defaulting to  0.1000E-14.
  No threshold value for u(r) in integrations given. Defaulting to  0.1000E-05.
  No accuracy for occupation numbers given. Defaulting to  0.1000E-12.
  No threshold value for occupation numbers given. Defaulting to  0.0000E+00.
  No accuracy for fermi level given. Defaulting to  0.1000E-19.
  Maximum # of iterations to find E_F not set. Defaulting to  200.
  Will not use alltoall communication since running on < 1024 CPUs.
  partition_type (choice of integration weights) for integrals was not specified.
  | Using a version of the partition function of Stratmann and coworkers ('stratmann_sparse').
  | At each grid point, the set of atoms used to build the partition table is smoothly restricted to
  | only those atoms whose free-atom density would be non-zero at that grid point.
  Partitioning for Hartree potential was not defined. Using partition_type for integrals.
  | Adjusted default value of keyword multip_moments_threshold to:       0.10000000E-11
  | This value may affect high angular momentum components of the Hartree potential in periodic systems.
  No q(lm)/r^(l+1) cutoff set for long-range Hartree potential.
  | Using default value of  0.100000E-09 .
  | Verify using the multipole_threshold keyword.
  Defaulting to new monopole extrapolation.
  Density update method: automatic selection selected.
 * Warning: use_local_index and/or load_balancing needs packed_matrix_format = index
 * Changing the default setting to packed_matrix_format = index
------------------------------------------------------------


------------------------------------------------------------
          Reading geometry description geometry.in.
------------------------------------------------------------
  Input structure read successfully.
  The structure contains       12 atoms,  and a total of         42.000 electrons.

  Input geometry:
  | No unit cell requested.
  | Atomic structure:
  |       Atom                x [A]            y [A]            z [A]
  |    1: Species H            17.36684700       17.85428900       21.46553500
  |    2: Species C            17.33736800       18.17666400       20.42458500
  |    3: Species C            16.42531200       17.60676000       19.53930000
  |    4: Species C            18.19614000       19.17585600       19.98337500
  |    5: Species H            15.74749800       16.82072400       19.87087600
  |    6: Species C            16.40386000       18.02414400       18.21662500
  |    7: Species C            18.17468800       19.59324000       18.66070000
  |    8: Species H            18.91063000       19.62173500       20.67431800
  |    9: Species H            15.68937000       17.57826500       17.52568300
  |   10: Species C            17.26263200       19.02333600       17.77541500
  |   11: Species H            18.85250200       20.37927600       18.32912400
  |   12: Species H            17.23315300       19.34571100       16.73446500
  |

  | The smallest distance between any two atoms is         1.08935985 AA.
  |
  | The first atom of this pair is atom number                      6 .
  | The second atom of this pair is atom number                     9 .

  Number of empty states per atom not set in control.in - providing a guess from actual geometry.
  | Total number of empty states used during s.c.f. cycle:       27
  If you use a very high smearing, use empty_states (per atom!) in control.in to increase this value.

  Structure-dependent array size parameters: 
  | Maximum number of distinct radial functions  :       18
  | Maximum number of basis functions            :      324
  | Number of Kohn-Sham states (occupied + empty):       48
------------------------------------------------------------

------------------------------------------------------------
          Preparing all fixed parts of the calculation.
------------------------------------------------------------
  Determining machine precision:
    2.225073858507201E-308
  Setting up grids for atomic and cluster calculations.

  Creating wave function, potential, and density for free atoms.

  Species: H

  List of occupied orbitals and eigenvalues:
    n    l              occ      energy [Ha]    energy [eV]
    1    0           1.0000        -0.238386        -6.4868


  Species: C

  List of occupied orbitals and eigenvalues:
    n    l              occ      energy [Ha]    energy [eV]
    1    0           2.0000       -10.049212      -273.4530
    2    0           2.0000        -0.504761       -13.7352
    2    1           2.0000        -0.193631        -5.2690

  Creating fixed part of basis set: Ionic, confined, hydrogenic.
 
  H                    hydrogenic:
 
  List of hydrogenic basis orbitals: 
    n    l      effective z      eigenvalue [eV]  inner max. [A]     outer max. [A]     outer radius [A]   
    2    0         2.100000       -14.9965           0.193243           1.317208           5.373006
    2    1         3.500000       -41.6672           0.602369           0.602369           4.056063
    1    0         0.850000        -9.8292           0.624871           0.624871           5.373006
    2    1         3.700000       -46.5653           0.573622           0.573622           3.910002
    2    0         1.200000        -4.5995           0.334980           2.228188           5.505995
    3    2         7.000000       -74.0753           0.680699           0.680699           3.769201
 
 
  C                    hydrogenic:
 
  List of hydrogenic basis orbitals: 
    n    l      effective z      eigenvalue [eV]  inner max. [A]     outer max. [A]     outer radius [A]   
    2    1         1.700000        -9.8152           1.245706           1.245706           5.401630
    3    2         6.000000       -54.4226           0.792453           0.792453           4.178599
    2    0         4.900000       -81.6681           0.082559           0.562749           3.353238
    4    3         9.800000       -81.6681           0.863254           0.863254           4.028125
    3    1         5.200000       -40.8774           0.305389           1.215618           4.898362
    3    0         4.300000       -27.9508           0.091041           1.610311           5.401630
    5    4        14.400000      -112.8510           0.917666           0.917666           3.883070
    3    2         6.200000       -58.1113           0.763917           0.763917           4.077671
 

  Adding cutoff potential to free-atom effective potential.
  Creating atomic-like basis functions for current effective potential.

  Species H                   :

  List of atomic basis orbitals and eigenvalues:
    n    l      energy [Ha]    energy [eV]    outer radius [A]
    1    0        -0.238386        -6.4868       5.373006


  Species C                   :

  List of atomic basis orbitals and eigenvalues:
    n    l      energy [Ha]    energy [eV]    outer radius [A]
    1    0       -10.049212      -273.4530       1.934409
    2    0        -0.504761       -13.7352       5.271162
    2    1        -0.193631        -5.2690       5.401630

  Assembling full basis from fixed parts.
  | Species H :   atomic orbital   1 s accepted.
  | Species H :    hydro orbital   2 s accepted.
  | Species H :    hydro orbital   1 s accepted.
  | Species H :    hydro orbital   2 s accepted.
  | Species H :    hydro orbital   2 p accepted.
  | Species H :    hydro orbital   2 p accepted.
  | Species H :    hydro orbital   3 d accepted.
  | Species C :   atomic orbital   1 s accepted.
  | Species C :    hydro orbital   2 s accepted.
  | Species C :   atomic orbital   2 s accepted.
  | Species C :    hydro orbital   3 s accepted.
  | Species C :    hydro orbital   3 p accepted.
  | Species C :   atomic orbital   2 p accepted.
  | Species C :    hydro orbital   2 p accepted.
  | Species C :    hydro orbital   3 d accepted.
  | Species C :    hydro orbital   3 d accepted.
  | Species C :    hydro orbital   4 f accepted.
  | Species C :    hydro orbital   5 g accepted.
 
  Basis size parameters after reduction:
  | Total number of radial functions:       18
  | Total number of basis functions :      324
 
  Per-task memory consumption for arrays in subroutine allocate_ext:
  |           4.421896MB.
  Testing on-site integration grid accuracy.
  |  Species  Function  <phi|h_atom|phi> (log., in eV)  <phi|h_atom|phi> (rad., in eV)
           1        1                 -6.4870767962                 -6.4871688290
           1        2                 13.5032046589                 13.5028982997
           1        3                 32.8195184817                 32.8119941656
           1        4                 33.8513856511                 33.7670005767 ***
           1        5                 28.8544614965                 28.8544615203
           1        6                 59.6326952547                 59.6327656460
           1        7                 60.2719308513                 60.2719305949
           2        8               -273.4529726040               -273.4529710464
           2        9                -10.7721037319                -10.7721022101
           2       10                 17.6044132601                 17.6044162063
           2       11                 53.7706460658                 53.7706913770
           2       12                 15.0973290362                 15.0973256030
           2       13                  3.8545134692                  3.8545724687
           2       14                 12.1156992592                 12.1182024431
           2       15                 29.4352039302                 29.4352041816
           2       16                 54.8741144708                 54.8740268729
           2       17                 59.3556032049                 59.3556031382
           2       18                 93.4551837154                 93.4551838009
 * Note: Onsite integrals marked "***" above are less accurate than
 * onsite_accuracy_threshold =    0.03000 eV. Usually, this is harmless.
 * When in doubt, tighten the "radial" and/or "radial_multiplier" flags to check.

  Preparing densities etc. for the partition functions (integrals / Hartree potential).

  Preparations completed.
  max(cpu_time)          :      0.179 s.
  Wall clock time (cpu1) :      0.185 s.
------------------------------------------------------------

------------------------------------------------------------
          Begin self-consistency loop: Initialization.

          Date     :  20210620, Time     :  160858.711
------------------------------------------------------------

  Initializing index lists of integration centers etc. from given atomic structure:
  | Number of centers in hartree potential         :        12
  | Number of centers in hartree multipole         :        12
  | Number of centers in electron density summation:        12
  | Number of centers in basis integrals           :        12
  | Number of centers in integrals                 :        12
  | Number of centers in hamiltonian               :        12
  * Using 56 tasks for Scalapack Eigenvalue solver.
  Detailed listing of tasks and assigned k-points:
  (for non-periodic systems, the "k-point" denotes an internal label only)
   Task     0 k-point     1 on d030
   Task     1 k-point     1 on d030
   Task     2 k-point     1 on d030
   Task     3 k-point     1 on d030
   Task     4 k-point     1 on d030
   Task     5 k-point     1 on d030
   Task     6 k-point     1 on d030
   Task     7 k-point     1 on d030
   Task     8 k-point     1 on d030
   Task     9 k-point     1 on d030
   Task    10 k-point     1 on d030
   Task    11 k-point     1 on d030
   Task    12 k-point     1 on d030
   Task    13 k-point     1 on d030
   Task    14 k-point     1 on d030
   Task    15 k-point     1 on d030
   Task    16 k-point     1 on d030
   Task    17 k-point     1 on d030
   Task    18 k-point     1 on d030
   Task    19 k-point     1 on d030
   Task    20 k-point     1 on d030
   Task    21 k-point     1 on d030
   Task    22 k-point     1 on d030
   Task    23 k-point     1 on d030
   Task    24 k-point     1 on d030
   Task    25 k-point     1 on d030
   Task    26 k-point     1 on d030
   Task    27 k-point     1 on d030
   Task    28 k-point     1 on d030
   Task    29 k-point     1 on d030
   Task    30 k-point     1 on d030
   Task    31 k-point     1 on d030
   Task    32 k-point     1 on d030
   Task    33 k-point     1 on d030
   Task    34 k-point     1 on d030
   Task    35 k-point     1 on d030
   Task    36 k-point     1 on d030
   Task    37 k-point     1 on d030
   Task    38 k-point     1 on d030
   Task    39 k-point     1 on d030
   Task    40 k-point     1 on d030
   Task    41 k-point     1 on d030
   Task    42 k-point     1 on d030
   Task    43 k-point     1 on d030
   Task    44 k-point     1 on d030
   Task    45 k-point     1 on d030
   Task    46 k-point     1 on d030
   Task    47 k-point     1 on d030
   Task    48 k-point     1 on d030
   Task    49 k-point     1 on d030
   Task    50 k-point     1 on d030
   Task    51 k-point     1 on d030
   Task    52 k-point     1 on d030
   Task    53 k-point     1 on d030
   Task    54 k-point     1 on d030
   Task    55 k-point     1 on d030
  Tasks:    56 split into      8 X      7 BLACS grid
  Calculating block size based on n_basis =          324 max_nprow =            8 max_npcol =            7
  ScaLAPACK block size set to:           16
  Allocating        0.018 MB for ovlp
  Allocating        0.018 MB for ham
  Allocating        0.018 MB for eigenvec
  Required Scalapack workspace - INTEGER:            1 REAL:             1
  Partitioning the integration grid into batches with parallel hashing+maxmin method.
  | Number of batches:     2390
  | Maximal batch size:     196
  | Minimal batch size:       2
  | Average batch size:      81.660
  | Standard deviation of batch sizes:      21.921

  Integration load balanced across     56 MPI tasks.
  Work distribution over tasks is as follows:
  Task      0 has       3557 integration points.
  Task      1 has       3517 integration points.
  Task      2 has       3440 integration points.
  Task      3 has       3520 integration points.
  Task      4 has       3476 integration points.
  Task      5 has       3518 integration points.
  Task      6 has       3460 integration points.
  Task      7 has       3648 integration points.
  Task      8 has       3471 integration points.
  Task      9 has       3404 integration points.
  Task     10 has       3500 integration points.
  Task     11 has       3445 integration points.
  Task     12 has       3451 integration points.
  Task     13 has       3451 integration points.
  Task     14 has       3544 integration points.
  Task     15 has       3524 integration points.
  Task     16 has       3410 integration points.
  Task     17 has       3505 integration points.
  Task     18 has       3483 integration points.
  Task     19 has       3501 integration points.
  Task     20 has       3465 integration points.
  Task     21 has       3496 integration points.
  Task     22 has       3547 integration points.
  Task     23 has       3409 integration points.
  Task     24 has       3571 integration points.
  Task     25 has       3422 integration points.
  Task     26 has       3467 integration points.
  Task     27 has       3453 integration points.
  Task     28 has       3549 integration points.
  Task     29 has       3576 integration points.
  Task     30 has       3425 integration points.
  Task     31 has       3527 integration points.
  Task     32 has       3410 integration points.
  Task     33 has       3540 integration points.
  Task     34 has       3391 integration points.
  Task     35 has       3548 integration points.
  Task     36 has       3496 integration points.
  Task     37 has       3441 integration points.
  Task     38 has       3485 integration points.
  Task     39 has       3473 integration points.
  Task     40 has       3521 integration points.
  Task     41 has       3434 integration points.
  Task     42 has       3543 integration points.
  Task     43 has       3509 integration points.
  Task     44 has       3432 integration points.
  Task     45 has       3500 integration points.
  Task     46 has       3456 integration points.
  Task     47 has       3506 integration points.
  Task     48 has       3406 integration points.
  Task     49 has       3548 integration points.
  Task     50 has       3525 integration points.
  Task     51 has       3427 integration points.
  Task     52 has       3497 integration points.
  Task     53 has       3483 integration points.
  Task     54 has       3462 integration points.
  Task     55 has       3403 integration points.
  Initializing partition tables, free-atom densities, potentials, etc. across the integration grid (initialize_grid_storage).
  | initialize_grid_storage: Actual outermost partition radius vs. multipole_radius_free
  | (-- VB: in principle, multipole_radius_free should be larger, hence this output)
  | Species        1: Confinement radius =              6.000000000000000 AA, multipole_radius_free =              6.071692442739658 AA.
  | Species        1: outer_partition_radius set to              6.071692442739658 AA .
  | Species        2: Confinement radius =              6.000000000000000 AA, multipole_radius_free =              6.029870734432609 AA.
  | Species        2: outer_partition_radius set to              6.029870734432609 AA .
  | The sparse table of interatomic distances needs      1.6360 kbyte instead of     1.1520 kbyte of memory.
  | Using the partition_type stratmann_smoother will reduce your memory usage.
  | Net number of integration points:   195168
  | of which are non-zero points    :   163303
  Renormalizing the initial density to the exact electron count on the 3D integration grid.
  | Initial density: Formal number of electrons (from input files) :      42.0000000000
  | Integrated number of electrons on 3D grid     :      42.0000624724
  | Charge integration error                      :       0.0000624724
  | Normalization factor for density and gradient :       0.9999985126
  Obtaining max. number of non-zero basis functions in each batch (get_n_compute_maxes).
  | Maximal number of non-zero basis functions:      324
  Selecting the method for density update.
  Loop over occupied states selected for charge density update.
  Hamiltonian matrix size:
  | Size of matrix non-packed:                 52650
  | Size of matrix packed:           52651
  Allocating        0.124 MB for KS_eigenvector
  use_local_index: Max. local matrix size =        52650
  Task:     0 matrix size:      43956
  Task:     1 matrix size:      45451
  Task:     2 matrix size:      52003
  Task:     3 matrix size:      47586
  Task:     4 matrix size:      52003
  Task:     5 matrix size:      52650
  Task:     6 matrix size:      52650
  Task:     7 matrix size:      50086
  Task:     8 matrix size:      35778
  Task:     9 matrix size:      48205
  Task:    10 matrix size:      52650
  Task:    11 matrix size:      52650
  Task:    12 matrix size:      52650
  Task:    13 matrix size:      52650
  Task:    14 matrix size:      50086
  Task:    15 matrix size:      52003
  Task:    16 matrix size:      50086
  Task:    17 matrix size:      52650
  Task:    18 matrix size:      52650
  Task:    19 matrix size:      52650
  Task:    20 matrix size:      52650
  Task:    21 matrix size:      39903
  Task:    22 matrix size:      52003
  Task:    23 matrix size:      46665
  Task:    24 matrix size:      52650
  Task:    25 matrix size:      52326
  Task:    26 matrix size:      50086
  Task:    27 matrix size:      48205
  Task:    28 matrix size:      49141
  Task:    29 matrix size:      52326
  Task:    30 matrix size:      52650
  Task:    31 matrix size:      47586
  Task:    32 matrix size:      52003
  Task:    33 matrix size:      43956
  Task:    34 matrix size:      46665
  Task:    35 matrix size:      52650
  Task:    36 matrix size:      52650
  Task:    37 matrix size:      52650
  Task:    38 matrix size:      52003
  Task:    39 matrix size:      52326
  Task:    40 matrix size:      48205
  Task:    41 matrix size:      47586
  Task:    42 matrix size:      52650
  Task:    43 matrix size:      52650
  Task:    44 matrix size:      52650
  Task:    45 matrix size:      51681
  Task:    46 matrix size:      52003
  Task:    47 matrix size:      43071
  Task:    48 matrix size:      45753
  Task:    49 matrix size:      52650
  Task:    50 matrix size:      52003
  Task:    51 matrix size:      50086
  Task:    52 matrix size:      52003
  Task:    53 matrix size:      48205
  Task:    54 matrix size:      46360
  Task:    55 matrix size:      38503
  Integrating Hamiltonian matrix: batch-based integration.
  Time summed over all CPUs for integration: real work       12.434 s, elapsed       16.506 s
  Time get_set_sparse_local_matrix_scalapack:     0.002297 s
  Start compute_balanced_batch_distribution
  Done load balancing, time needed:      0.002 s
  Integrating overlap matrix with loadbalancing
  Time summed over all CPUs for integration: real work        2.410 s, elapsed        2.680 s
  Time get_set_full_local_matrix_scalapack:     0.001741 s

  Updating Kohn-Sham eigenvalues and eigenvectors using ELSI and the ELPA eigensolver.
  Overlap matrix is not singular
  | Lowest and highest eigenvalues :  0.79E+01,  0.12E-03
  Finished singularity check of overlap matrix
  | Time :     0.020 s
  Finished Cholesky decomposition
  | Time :     0.003 s
  Finished transformation to standard eigenproblem
  | Time :     0.002 s
  Starting ELPA eigensolver
  Finished solving standard eigenproblem
  | Time :     0.016 s
  Finished back-transformation of eigenvectors
  | Time :     0.003 s

  Obtaining occupation numbers and chemical potential using ELSI.
  | Chemical potential (Fermi level):    -7.59221998 eV
  Writing Kohn-Sham eigenvalues.

  State    Occupation    Eigenvalue [Ha]    Eigenvalue [eV]
      1       2.00000         -10.171595         -276.78318
      2       2.00000         -10.171556         -276.78211
      3       2.00000         -10.170899         -276.76423
      4       2.00000         -10.170807         -276.76174
      5       2.00000         -10.170322         -276.74853
      6       2.00000         -10.170270         -276.74713
      7       2.00000          -0.993407          -27.03198
      8       2.00000          -0.885670          -24.10031
      9       2.00000          -0.883864          -24.05116
     10       2.00000          -0.746656          -20.31754
     11       2.00000          -0.743895          -20.24240
     12       2.00000          -0.657111          -17.88091
     13       2.00000          -0.624861          -17.00333
     14       2.00000          -0.580840          -15.80545
     15       2.00000          -0.565790          -15.39593
     16       2.00000          -0.564549          -15.36216
     17       2.00000          -0.502704          -13.67928
     18       2.00000          -0.496921          -13.52191
     19       2.00000          -0.494602          -13.45880
     20       2.00000          -0.403344          -10.97556
     21       2.00000          -0.401905          -10.93639
     22       0.00000          -0.209381           -5.69756
     23       0.00000          -0.207819           -5.65503
     24       0.00000          -0.070305           -1.91310
     25       0.00000          -0.066358           -1.80568
     26       0.00000          -0.033826           -0.92046
     27       0.00000          -0.033207           -0.90362
     28       0.00000          -0.008649           -0.23536
     29       0.00000          -0.007756           -0.21104
     30       0.00000           0.019000            0.51701
     31       0.00000           0.031469            0.85632
     32       0.00000           0.063504            1.72803
     33       0.00000           0.067275            1.83064
     34       0.00000           0.067618            1.83999
     35       0.00000           0.079260            2.15679
     36       0.00000           0.080484            2.19008
     37       0.00000           0.089041            2.42294
     38       0.00000           0.107831            2.93422
     39       0.00000           0.108262            2.94597
     40       0.00000           0.129733            3.53022
     41       0.00000           0.133274            3.62656
     42       0.00000           0.136309            3.70916
     43       0.00000           0.147035            4.00102
     44       0.00000           0.147579            4.01583
     45       0.00000           0.157961            4.29834
     46       0.00000           0.204431            5.56285
     47       0.00000           0.205152            5.58247
     48       0.00000           0.207512            5.64668

  Highest occupied state (VBM) at    -10.93639291 eV
  | Occupation number:      2.00000000

  Lowest unoccupied state (CBM) at    -5.69756014 eV
  | Occupation number:      0.00000000

  Overall HOMO-LUMO gap:      5.23883277 eV.
  Calculating total energy contributions from superposition of free atom densities.

  Total energy components:
  | Sum of eigenvalues            :        -141.14313352 Ha       -3840.70007573 eV
  | XC energy correction          :         -33.71960169 Ha        -917.55704666 eV
  | XC potential correction       :          43.30661677 Ha        1178.43300028 eV
  | Free-atom electrostatic energy:        -100.93144702 Ha       -2746.48441308 eV
  | Hartree energy correction     :           0.00000000 Ha           0.00000000 eV
  | Entropy correction            :           0.00000000 Ha           0.00000000 eV
  | ---------------------------
  | Total energy                  :        -232.48756546 Ha       -6326.30853519 eV
  | Total energy, T -> 0          :        -232.48756546 Ha       -6326.30853519 eV  <-- do not rely on this value for anything but (periodic) metals
  | Electronic free energy        :        -232.48756546 Ha       -6326.30853519 eV

  Derived energy quantities:
  | Kinetic energy                :         229.51785829 Ha        6245.49869158 eV
  | Electrostatic energy          :        -428.28582206 Ha      -11654.25018010 eV
  | Energy correction for multipole
  | error in Hartree potential    :           0.00000000 Ha           0.00000000 eV
  | Sum of eigenvalues per atom                           :        -320.05833964 eV
  | Total energy (T->0) per atom                          :        -527.19237793 eV  <-- do not rely on this value for anything but (periodic) metals
  | Electronic free energy per atom                       :        -527.19237793 eV
  Initialize hartree_potential_storage
  Max. number of atoms included in rho_multipole:           12

  End scf initialization - timings             :  max(cpu_time)    wall_clock(cpu1)
  | Time for scf. initialization               :        0.611 s           0.670 s
  | Boundary condition initialization          :        0.001 s           0.007 s
  | Integration                                :        0.349 s           0.355 s
  | Solution of K.-S. eqns.                    :        0.042 s           0.055 s
  | Grid partitioning                          :        0.139 s           0.143 s
  | Preloading free-atom quantities on grid    :        0.016 s           0.019 s
  | Free-atom superposition energy             :        0.010 s           0.012 s
  | Total energy evaluation                    :        0.001 s           0.004 s

  Partial memory accounting:
  | Current value for overall tracked memory usage on task 0  :           0.356 MB
  | Peak value for overall tracked memory usage on task 0     :           6.128 MB after allocating zora_vector2
  | Largest tracked array allocation on task 0 so far         :           1.524 MB  when allocating zora_vector1
  Note:  These values currently only include a subset of arrays which are explicitly tracked.
  The "true" memory usage will be greater.
------------------------------------------------------------

------------------------------------------------------------
          Begin self-consistency iteration #    1

  Date     :  20210620, Time     :  160859.384
------------------------------------------------------------
  Evaluating new KS density.
  Integration grid: deviation in total charge (<rho> - N_e) =   4.263256E-14
  Pulay mixing of updated and previous charge densities.

  Evaluating partitioned Hartree potential by multipole expansion.
  | Analytical far-field extrapolation by fixed multipoles:
  | Hartree multipole sum: apparent total charge =   0.602204E-04
  Summing up the Hartree potential with load balancing.
  Time summed over all CPUs for potential: real work        2.412 s, elapsed        3.176 s
  | RMS charge density error from multipole expansion :   0.557596E-02

  Start compute_balanced_batch_distribution
  Done load balancing, time needed:      0.001 s
  Integrating Hamiltonian matrix: batch-based integration with load balancing
  Time summed over all CPUs for integration: real work       11.890 s, elapsed       13.535 s
  Time get_set_full_local_matrix_scalapack:     0.001544 s
  Start compute_balanced_batch_distribution
  Done load balancing, time needed:      0.001 s

  Updating Kohn-Sham eigenvalues and eigenvectors using ELSI and the ELPA eigensolver.
  Finished transformation to standard eigenproblem
  | Time :     0.003 s
  Starting ELPA eigensolver
  Finished solving standard eigenproblem
  | Time :     0.011 s
  Finished back-transformation of eigenvectors
  | Time :     0.001 s

  Obtaining occupation numbers and chemical potential using ELSI.
  | Chemical potential (Fermi level):    -6.10620909 eV
  Writing Kohn-Sham eigenvalues.

  State    Occupation    Eigenvalue [Ha]    Eigenvalue [eV]
      1       2.00000          -9.938302         -270.43497
      2       2.00000          -9.938267         -270.43400
      3       2.00000          -9.937806         -270.42145
      4       2.00000          -9.937757         -270.42013
      5       2.00000          -9.936235         -270.37870
      6       2.00000          -9.936223         -270.37839
      7       2.00000          -0.824635          -22.43945
      8       2.00000          -0.727328          -19.79160
      9       2.00000          -0.726263          -19.76262
     10       2.00000          -0.599799          -16.32135
     11       2.00000          -0.597557          -16.26036
     12       2.00000          -0.527147          -14.34441
     13       2.00000          -0.470177          -12.79418
     14       2.00000          -0.453964          -12.35299
     15       2.00000          -0.429272          -11.68107
     16       2.00000          -0.427422          -11.63073
     17       2.00000          -0.367219           -9.99253
     18       2.00000          -0.359545           -9.78373
     19       2.00000          -0.357111           -9.71748
     20       2.00000          -0.268107           -7.29557
     21       2.00000          -0.267418           -7.27681
     22       0.00000          -0.079856           -2.17298
     23       0.00000          -0.077786           -2.11666
     24       0.00000          -0.025566           -0.69568
     25       0.00000           0.000347            0.00943
     26       0.00000           0.000596            0.01621
     27       0.00000           0.025627            0.69735
     28       0.00000           0.026163            0.71194
     29       0.00000           0.062098            1.68976
     30       0.00000           0.063295            1.72233
     31       0.00000           0.075800            2.06262
     32       0.00000           0.110519            3.00738
     33       0.00000           0.131179            3.56956
     34       0.00000           0.137897            3.75237
     35       0.00000           0.138712            3.77454
     36       0.00000           0.151059            4.11052
     37       0.00000           0.151317            4.11753
     38       0.00000           0.164727            4.48246
     39       0.00000           0.165425            4.50144
     40       0.00000           0.198228            5.39407
     41       0.00000           0.198736            5.40788
     42       0.00000           0.199524            5.42934
     43       0.00000           0.206959            5.63163
     44       0.00000           0.234451            6.37973
     45       0.00000           0.236821            6.44423
     46       0.00000           0.250136            6.80655
     47       0.00000           0.251120            6.83332
     48       0.00000           0.253334            6.89357

  Highest occupied state (VBM) at     -7.27680742 eV
  | Occupation number:      2.00000000

  Lowest unoccupied state (CBM) at    -2.17298314 eV
  | Occupation number:      0.00000000

  Overall HOMO-LUMO gap:      5.10382427 eV.

  Total energy components:
  | Sum of eigenvalues            :        -134.05510661 Ha       -3647.82505024 eV
  | XC energy correction          :         -34.27161604 Ha        -932.57812155 eV
  | XC potential correction       :          44.02383278 Ha        1197.94944099 eV
  | Free-atom electrostatic energy:        -100.93144702 Ha       -2746.48441308 eV
  | Hartree energy correction     :          -6.98578715 Ha        -190.09294023 eV
  | Entropy correction            :           0.00000000 Ha           0.00000000 eV
  | ---------------------------
  | Total energy                  :        -232.22012405 Ha       -6319.03108410 eV
  | Total energy, T -> 0          :        -232.22012405 Ha       -6319.03108410 eV  <-- do not rely on this value for anything but (periodic) metals
  | Electronic free energy        :        -232.22012405 Ha       -6319.03108410 eV

  Derived energy quantities:
  | Kinetic energy                :         232.06636286 Ha        6314.84702939 eV
  | Electrostatic energy          :        -430.01487087 Ha      -11701.29999195 eV
  | Energy correction for multipole
  | error in Hartree potential    :          -0.01356165 Ha          -0.36903128 eV
  | Sum of eigenvalues per atom                           :        -303.98542085 eV
  | Total energy (T->0) per atom                          :        -526.58592368 eV  <-- do not rely on this value for anything but (periodic) metals
  | Electronic free energy per atom                       :        -526.58592368 eV

  Self-consistency convergence accuracy:
  | Change of charge density      :  0.5324E+00
  | Change of sum of eigenvalues  :  0.1929E+03 eV
  | Change of total energy        :  0.7277E+01 eV

  End self-consistency iteration #     1       :  max(cpu_time)    wall_clock(cpu1)
  | Time for this iteration                    :        0.420 s           0.426 s
  | Charge density update                      :        0.082 s           0.083 s
  | Density mixing                             :        0.001 s           0.002 s
  | Hartree multipole update                   :        0.005 s           0.006 s
  | Hartree multipole summation                :        0.060 s           0.062 s
  | Integration                                :        0.243 s           0.243 s
  | Solution of K.-S. eqns.                    :        0.021 s           0.022 s
  | Total energy evaluation                    :        0.001 s           0.002 s

  Partial memory accounting:
  | Current value for overall tracked memory usage on task 0  :           0.356 MB
  | Peak value for overall tracked memory usage on task 0     :           6.147 MB after allocating zora_vector2
  | Largest tracked array allocation on task 0 so far         :           1.524 MB  when allocating zora_vector1
  Note:  These values currently only include a subset of arrays which are explicitly tracked.
  The "true" memory usage will be greater.
------------------------------------------------------------

------------------------------------------------------------
          Begin self-consistency iteration #    2

  Date     :  20210620, Time     :  160859.812
------------------------------------------------------------
  Evaluating new KS density.
  Integration grid: deviation in total charge (<rho> - N_e) =   7.105427E-15
  Pulay mixing of updated and previous charge densities.

  Evaluating partitioned Hartree potential by multipole expansion.
  | Analytical far-field extrapolation by fixed multipoles:
  | Hartree multipole sum: apparent total charge =   0.608940E-04
  Summing up the Hartree potential with load balancing.
  Time summed over all CPUs for potential: real work        2.322 s, elapsed        2.949 s
  | RMS charge density error from multipole expansion :   0.950390E-02

  Integrating Hamiltonian matrix: batch-based integration with load balancing
  Time summed over all CPUs for integration: real work       11.810 s, elapsed       12.345 s
  Time get_set_full_local_matrix_scalapack:     0.001609 s

  Updating Kohn-Sham eigenvalues and eigenvectors using ELSI and the ELPA eigensolver.
  Finished transformation to standard eigenproblem
  | Time :     0.001 s
  Starting ELPA eigensolver
  Finished solving standard eigenproblem
  | Time :     0.010 s
  Finished back-transformation of eigenvectors
  | Time :     0.000 s

  Obtaining occupation numbers and chemical potential using ELSI.
  | Chemical potential (Fermi level):    -5.51539641 eV
  Highest occupied state (VBM) at     -6.50610250 eV
  | Occupation number:      2.00000000

  Lowest unoccupied state (CBM) at    -1.36769353 eV
  | Occupation number:      0.00000000

  Overall HOMO-LUMO gap:      5.13840897 eV.

  Checking to see if s.c.f. parameters should be adjusted.

  Total energy components:
  | Sum of eigenvalues            :        -132.39897521 Ha       -3602.75942181 eV
  | XC energy correction          :         -34.47083496 Ha        -937.99914401 eV
  | XC potential correction       :          44.27968886 Ha        1204.91163922 eV
  | Free-atom electrostatic energy:        -100.93144702 Ha       -2746.48441308 eV
  | Hartree energy correction     :          -8.66809776 Ha        -235.87094093 eV
  | Entropy correction            :           0.00000000 Ha           0.00000000 eV
  | ---------------------------
  | Total energy                  :        -232.18966608 Ha       -6318.20228060 eV
  | Total energy, T -> 0          :        -232.18966608 Ha       -6318.20228060 eV  <-- do not rely on this value for anything but (periodic) metals
  | Electronic free energy        :        -232.18966608 Ha       -6318.20228060 eV

  Derived energy quantities:
  | Kinetic energy                :         232.05686448 Ha        6314.58856531 eV
  | Electrostatic energy          :        -429.77569561 Ha      -11694.79170190 eV
  | Energy correction for multipole
  | error in Hartree potential    :          -0.02040740 Ha          -0.55531352 eV
  | Sum of eigenvalues per atom                           :        -300.22995182 eV
  | Total energy (T->0) per atom                          :        -526.51685672 eV  <-- do not rely on this value for anything but (periodic) metals
  | Electronic free energy per atom                       :        -526.51685672 eV

  Self-consistency convergence accuracy:
  | Change of charge density      :  0.2590E+00
  | Change of sum of eigenvalues  :  0.4507E+02 eV
  | Change of total energy        :  0.8288E+00 eV

  End self-consistency iteration #     2       :  max(cpu_time)    wall_clock(cpu1)
  | Time for this iteration                    :        0.369 s           0.373 s
  | Charge density update                      :        0.070 s           0.069 s
  | Density mixing                             :        0.001 s           0.003 s
  | Hartree multipole update                   :        0.004 s           0.004 s
  | Hartree multipole summation                :        0.054 s           0.054 s
  | Integration                                :        0.222 s           0.222 s
  | Solution of K.-S. eqns.                    :        0.017 s           0.017 s
  | Total energy evaluation                    :        0.000 s           0.000 s

  Partial memory accounting:
  | Current value for overall tracked memory usage on task 0  :           0.357 MB
  | Peak value for overall tracked memory usage on task 0     :           6.147 MB after allocating zora_vector2
  | Largest tracked array allocation on task 0 so far         :           1.524 MB  when allocating zora_vector1
  Note:  These values currently only include a subset of arrays which are explicitly tracked.
  The "true" memory usage will be greater.
------------------------------------------------------------

------------------------------------------------------------
          Begin self-consistency iteration #    3

  Date     :  20210620, Time     :  160900.187
------------------------------------------------------------
  Evaluating new KS density.
  Integration grid: deviation in total charge (<rho> - N_e) =  -7.105427E-15
  Pulay mixing of updated and previous charge densities.

  Evaluating partitioned Hartree potential by multipole expansion.
  | Analytical far-field extrapolation by fixed multipoles:
  | Hartree multipole sum: apparent total charge =   0.614211E-04
  Summing up the Hartree potential with load balancing.
  Time summed over all CPUs for potential: real work        2.323 s, elapsed        2.948 s
  | RMS charge density error from multipole expansion :   0.118196E-01

  Integrating Hamiltonian matrix: batch-based integration with load balancing
  Time summed over all CPUs for integration: real work       11.869 s, elapsed       12.479 s
  Time get_set_full_local_matrix_scalapack:     0.001616 s

  Updating Kohn-Sham eigenvalues and eigenvectors using ELSI and the ELPA eigensolver.
  Finished transformation to standard eigenproblem
  | Time :     0.001 s
  Starting ELPA eigensolver
  Finished solving standard eigenproblem
  | Time :     0.011 s
  Finished back-transformation of eigenvectors
  | Time :     0.000 s

  Obtaining occupation numbers and chemical potential using ELSI.
  | Chemical potential (Fermi level):    -5.30334205 eV
  Highest occupied state (VBM) at     -6.33021342 eV
  | Occupation number:      2.00000000

  Lowest unoccupied state (CBM) at    -1.17403584 eV
  | Occupation number:      0.00000000

  Overall HOMO-LUMO gap:      5.15617757 eV.

  Total energy components:
  | Sum of eigenvalues            :        -132.04137086 Ha       -3593.02851248 eV
  | XC energy correction          :         -34.53040527 Ha        -939.62013474 eV
  | XC potential correction       :          44.35524090 Ha        1206.96751485 eV
  | Free-atom electrostatic energy:        -100.93144702 Ha       -2746.48441308 eV
  | Hartree energy correction     :          -9.03896731 Ha        -245.96281504 eV
  | Entropy correction            :           0.00000000 Ha           0.00000000 eV
  | ---------------------------
  | Total energy                  :        -232.18694956 Ha       -6318.12836049 eV
  | Total energy, T -> 0          :        -232.18694956 Ha       -6318.12836049 eV  <-- do not rely on this value for anything but (periodic) metals
  | Electronic free energy        :        -232.18694956 Ha       -6318.12836049 eV

  Derived energy quantities:
  | Kinetic energy                :         231.61124786 Ha        6302.46272011 eV
  | Electrostatic energy          :        -429.26779216 Ha      -11680.97094586 eV
  | Energy correction for multipole
  | error in Hartree potential    :          -0.02338570 Ha          -0.63635736 eV
  | Sum of eigenvalues per atom                           :        -299.41904271 eV
  | Total energy (T->0) per atom                          :        -526.51069671 eV  <-- do not rely on this value for anything but (periodic) metals
  | Electronic free energy per atom                       :        -526.51069671 eV

  Self-consistency convergence accuracy:
  | Change of charge density      :  0.1008E+00
  | Change of sum of eigenvalues  :  0.9731E+01 eV
  | Change of total energy        :  0.7392E-01 eV

  End self-consistency iteration #     3       :  max(cpu_time)    wall_clock(cpu1)
  | Time for this iteration                    :        0.373 s           0.372 s
  | Charge density update                      :        0.070 s           0.068 s
  | Density mixing                             :        0.001 s           0.001 s
  | Hartree multipole update                   :        0.004 s           0.004 s
  | Hartree multipole summation                :        0.054 s           0.054 s
  | Integration                                :        0.224 s           0.224 s
  | Solution of K.-S. eqns.                    :        0.017 s           0.017 s
  | Total energy evaluation                    :        0.000 s           0.002 s

  Partial memory accounting:
  | Current value for overall tracked memory usage on task 0  :           0.357 MB
  | Peak value for overall tracked memory usage on task 0     :           6.147 MB after allocating zora_vector2
  | Largest tracked array allocation on task 0 so far         :           1.524 MB  when allocating zora_vector1
  Note:  These values currently only include a subset of arrays which are explicitly tracked.
  The "true" memory usage will be greater.
------------------------------------------------------------

------------------------------------------------------------
          Begin self-consistency iteration #    4

  Date     :  20210620, Time     :  160900.561
------------------------------------------------------------
  Evaluating new KS density.
  Integration grid: deviation in total charge (<rho> - N_e) =   2.842171E-14
  Pulay mixing of updated and previous charge densities.

  Evaluating partitioned Hartree potential by multipole expansion.
  | Analytical far-field extrapolation by fixed multipoles:
  | Hartree multipole sum: apparent total charge =   0.613677E-04
  Summing up the Hartree potential with load balancing.
  Time summed over all CPUs for potential: real work        2.322 s, elapsed        2.942 s
  | RMS charge density error from multipole expansion :   0.121569E-01

  Integrating Hamiltonian matrix: batch-based integration with load balancing
  Time summed over all CPUs for integration: real work       11.805 s, elapsed       12.331 s
  Time get_set_full_local_matrix_scalapack:     0.001580 s

  Updating Kohn-Sham eigenvalues and eigenvectors using ELSI and the ELPA eigensolver.
  Finished transformation to standard eigenproblem
  | Time :     0.001 s
  Starting ELPA eigensolver
  Finished solving standard eigenproblem
  | Time :     0.010 s
  Finished back-transformation of eigenvectors
  | Time :     0.001 s

  Obtaining occupation numbers and chemical potential using ELSI.
  | Chemical potential (Fermi level):    -5.31165338 eV
  Highest occupied state (VBM) at     -6.31996133 eV
  | Occupation number:      2.00000000

  Lowest unoccupied state (CBM) at    -1.17355170 eV
  | Occupation number:      0.00000000

  Overall HOMO-LUMO gap:      5.14640963 eV.

  Total energy components:
  | Sum of eigenvalues            :        -132.07836018 Ha       -3594.03504287 eV
  | XC energy correction          :         -34.51838812 Ha        -939.29313158 eV
  | XC potential correction       :          44.33961372 Ha        1206.54227740 eV
  | Free-atom electrostatic energy:        -100.93144702 Ha       -2746.48441308 eV
  | Hartree energy correction     :          -8.99830558 Ha        -244.85635310 eV
  | Entropy correction            :           0.00000000 Ha           0.00000000 eV
  | ---------------------------
  | Total energy                  :        -232.18688719 Ha       -6318.12666322 eV
  | Total energy, T -> 0          :        -232.18688719 Ha       -6318.12666322 eV  <-- do not rely on this value for anything but (periodic) metals
  | Electronic free energy        :        -232.18688719 Ha       -6318.12666322 eV

  Derived energy quantities:
  | Kinetic energy                :         231.44668655 Ha        6297.98477890 eV
  | Electrostatic energy          :        -429.11518561 Ha      -11676.81831054 eV
  | Energy correction for multipole
  | error in Hartree potential    :          -0.02346799 Ha          -0.63859641 eV
  | Sum of eigenvalues per atom                           :        -299.50292024 eV
  | Total energy (T->0) per atom                          :        -526.51055527 eV  <-- do not rely on this value for anything but (periodic) metals
  | Electronic free energy per atom                       :        -526.51055527 eV

  Self-consistency convergence accuracy:
  | Change of charge density      :  0.1505E-01
  | Change of sum of eigenvalues  : -0.1007E+01 eV
  | Change of total energy        :  0.1697E-02 eV

  End self-consistency iteration #     4       :  max(cpu_time)    wall_clock(cpu1)
  | Time for this iteration                    :        0.370 s           0.368 s
  | Charge density update                      :        0.070 s           0.068 s
  | Density mixing                             :        0.001 s           0.001 s
  | Hartree multipole update                   :        0.004 s           0.004 s
  | Hartree multipole summation                :        0.054 s           0.054 s
  | Integration                                :        0.221 s           0.221 s
  | Solution of K.-S. eqns.                    :        0.017 s           0.017 s
  | Total energy evaluation                    :        0.000 s           0.002 s

  Partial memory accounting:
  | Current value for overall tracked memory usage on task 0  :           0.357 MB
  | Peak value for overall tracked memory usage on task 0     :           6.147 MB after allocating zora_vector2
  | Largest tracked array allocation on task 0 so far         :           1.524 MB  when allocating zora_vector1
  Note:  These values currently only include a subset of arrays which are explicitly tracked.
  The "true" memory usage will be greater.
------------------------------------------------------------

------------------------------------------------------------
          Begin self-consistency iteration #    5

  Date     :  20210620, Time     :  160900.932
------------------------------------------------------------
  Evaluating new KS density.
  Integration grid: deviation in total charge (<rho> - N_e) =   1.421085E-14
  Pulay mixing of updated and previous charge densities.

  Evaluating partitioned Hartree potential by multipole expansion.
  | Analytical far-field extrapolation by fixed multipoles:
  | Hartree multipole sum: apparent total charge =   0.613502E-04
  Summing up the Hartree potential with load balancing.
  Time summed over all CPUs for potential: real work        2.322 s, elapsed        2.948 s
  | RMS charge density error from multipole expansion :   0.122344E-01

  Integrating Hamiltonian matrix: batch-based integration with load balancing
  Time summed over all CPUs for integration: real work       11.807 s, elapsed       12.352 s
  Time get_set_full_local_matrix_scalapack:     0.001547 s

  Updating Kohn-Sham eigenvalues and eigenvectors using ELSI and the ELPA eigensolver.
  Finished transformation to standard eigenproblem
  | Time :     0.001 s
  Starting ELPA eigensolver
  Finished solving standard eigenproblem
  | Time :     0.010 s
  Finished back-transformation of eigenvectors
  | Time :     0.001 s

  Obtaining occupation numbers and chemical potential using ELSI.
  | Chemical potential (Fermi level):    -5.32557578 eV
  Highest occupied state (VBM) at     -6.33540915 eV
  | Occupation number:      2.00000000

  Lowest unoccupied state (CBM) at    -1.18799550 eV
  | Occupation number:      0.00000000

  Overall HOMO-LUMO gap:      5.14741365 eV.

  Total energy components:
  | Sum of eigenvalues            :        -132.11284206 Ha       -3594.97334278 eV
  | XC energy correction          :         -34.51437373 Ha        -939.18389427 eV
  | XC potential correction       :          44.33441179 Ha        1206.40072577 eV
  | Free-atom electrostatic energy:        -100.93144702 Ha       -2746.48441308 eV
  | Hartree energy correction     :          -8.96264108 Ha        -243.88587262 eV
  | Entropy correction            :           0.00000000 Ha           0.00000000 eV
  | ---------------------------
  | Total energy                  :        -232.18689211 Ha       -6318.12679697 eV
  | Total energy, T -> 0          :        -232.18689211 Ha       -6318.12679697 eV  <-- do not rely on this value for anything but (periodic) metals
  | Electronic free energy        :        -232.18689211 Ha       -6318.12679697 eV

  Derived energy quantities:
  | Kinetic energy                :         231.42221000 Ha        6297.31873820 eV
  | Electrostatic energy          :        -429.09472838 Ha      -11676.26164090 eV
  | Energy correction for multipole
  | error in Hartree potential    :          -0.02347193 Ha          -0.63870385 eV
  | Sum of eigenvalues per atom                           :        -299.58111190 eV
  | Total energy (T->0) per atom                          :        -526.51056641 eV  <-- do not rely on this value for anything but (periodic) metals
  | Electronic free energy per atom                       :        -526.51056641 eV

  Self-consistency convergence accuracy:
  | Change of charge density      :  0.3059E-02
  | Change of sum of eigenvalues  : -0.9383E+00 eV
  | Change of total energy        : -0.1338E-03 eV

  End self-consistency iteration #     5       :  max(cpu_time)    wall_clock(cpu1)
  | Time for this iteration                    :        0.371 s           0.369 s
  | Charge density update                      :        0.070 s           0.068 s
  | Density mixing                             :        0.002 s           0.001 s
  | Hartree multipole update                   :        0.004 s           0.004 s
  | Hartree multipole summation                :        0.054 s           0.055 s
  | Integration                                :        0.221 s           0.221 s
  | Solution of K.-S. eqns.                    :        0.016 s           0.017 s
  | Total energy evaluation                    :        0.000 s           0.001 s

  Partial memory accounting:
  | Current value for overall tracked memory usage on task 0  :           0.357 MB
  | Peak value for overall tracked memory usage on task 0     :           6.147 MB after allocating zora_vector2
  | Largest tracked array allocation on task 0 so far         :           1.524 MB  when allocating zora_vector1
  Note:  These values currently only include a subset of arrays which are explicitly tracked.
  The "true" memory usage will be greater.
------------------------------------------------------------

------------------------------------------------------------
          Begin self-consistency iteration #    6

  Date     :  20210620, Time     :  160901.303
------------------------------------------------------------
  Evaluating new KS density.
  Integration grid: deviation in total charge (<rho> - N_e) =  -7.105427E-15
  Pulay mixing of updated and previous charge densities.

  Evaluating partitioned Hartree potential by multipole expansion.
  | Analytical far-field extrapolation by fixed multipoles:
  | Hartree multipole sum: apparent total charge =   0.613368E-04
  Summing up the Hartree potential with load balancing.
  Time summed over all CPUs for potential: real work        2.342 s, elapsed        2.992 s
  | RMS charge density error from multipole expansion :   0.122685E-01

  Integrating Hamiltonian matrix: batch-based integration with load balancing
  Time summed over all CPUs for integration: real work       11.929 s, elapsed       12.539 s
  Time get_set_full_local_matrix_scalapack:     0.001651 s

  Updating Kohn-Sham eigenvalues and eigenvectors using ELSI and the ELPA eigensolver.
  Finished transformation to standard eigenproblem
  | Time :     0.002 s
  Starting ELPA eigensolver
  Finished solving standard eigenproblem
  | Time :     0.011 s
  Finished back-transformation of eigenvectors
  | Time :     0.000 s

  Obtaining occupation numbers and chemical potential using ELSI.
  | Chemical potential (Fermi level):    -5.32168278 eV
  Highest occupied state (VBM) at     -6.33027658 eV
  | Occupation number:      2.00000000

  Lowest unoccupied state (CBM) at    -1.18308725 eV
  | Occupation number:      0.00000000

  Overall HOMO-LUMO gap:      5.14718933 eV.

  Total energy components:
  | Sum of eigenvalues            :        -132.10536102 Ha       -3594.76977330 eV
  | XC energy correction          :         -34.51463840 Ha        -939.19109643 eV
  | XC potential correction       :          44.33476721 Ha        1206.41039715 eV
  | Free-atom electrostatic energy:        -100.93144702 Ha       -2746.48441308 eV
  | Hartree energy correction     :          -8.97021082 Ha        -244.09185567 eV
  | Entropy correction            :           0.00000000 Ha           0.00000000 eV
  | ---------------------------
  | Total energy                  :        -232.18689006 Ha       -6318.12674132 eV
  | Total energy, T -> 0          :        -232.18689006 Ha       -6318.12674132 eV  <-- do not rely on this value for anything but (periodic) metals
  | Electronic free energy        :        -232.18689006 Ha       -6318.12674132 eV

  Derived energy quantities:
  | Kinetic energy                :         231.42237872 Ha        6297.32332928 eV
  | Electrostatic energy          :        -429.09463038 Ha      -11676.25897417 eV
  | Energy correction for multipole
  | error in Hartree potential    :          -0.02350130 Ha          -0.63950280 eV
  | Sum of eigenvalues per atom                           :        -299.56414777 eV
  | Total energy (T->0) per atom                          :        -526.51056178 eV  <-- do not rely on this value for anything but (periodic) metals
  | Electronic free energy per atom                       :        -526.51056178 eV

  Self-consistency convergence accuracy:
  | Change of charge density      :  0.1071E-02
  | Change of sum of eigenvalues  :  0.2036E+00 eV
  | Change of total energy        :  0.5566E-04 eV

  End self-consistency iteration #     6       :  max(cpu_time)    wall_clock(cpu1)
  | Time for this iteration                    :        0.384 s           0.383 s
  | Charge density update                      :        0.071 s           0.069 s
  | Density mixing                             :        0.002 s           0.002 s
  | Hartree multipole update                   :        0.004 s           0.005 s
  | Hartree multipole summation                :        0.055 s           0.055 s
  | Integration                                :        0.225 s           0.225 s
  | Solution of K.-S. eqns.                    :        0.020 s           0.021 s
  | Total energy evaluation                    :        0.000 s           0.002 s

  Partial memory accounting:
  | Current value for overall tracked memory usage on task 0  :           0.357 MB
  | Peak value for overall tracked memory usage on task 0     :           6.147 MB after allocating zora_vector2
[...]
  | Entropy correction            :           0.00000000 Ha           0.00000000 eV
  | ---------------------------
  | Total energy                  :        -232.18688971 Ha       -6318.12673189 eV
  | Total energy, T -> 0          :        -232.18688971 Ha       -6318.12673189 eV  <-- do not rely on this value for anything but (periodic) metals
  | Electronic free energy        :        -232.18688971 Ha       -6318.12673189 eV

  Derived energy quantities:
  | Kinetic energy                :         231.42464322 Ha        6297.38494938 eV
  | Electrostatic energy          :        -429.09674025 Ha      -11676.31638675 eV
  | Energy correction for multipole
  | error in Hartree potential    :          -0.02350909 Ha          -0.63971482 eV
  | Sum of eigenvalues per atom                           :        -299.56229475 eV
  | Total energy (T->0) per atom                          :        -526.51056099 eV  <-- do not rely on this value for anything but (periodic) metals
  | Electronic free energy per atom                       :        -526.51056099 eV

  Self-consistency convergence accuracy:
  | Change of charge density      :  0.2972E-06
  | Change of sum of eigenvalues  : -0.3184E-04 eV
  | Change of total energy        : -0.1976E-07 eV

  Writing Kohn-Sham eigenvalues.

  State    Occupation    Eigenvalue [Ha]    Eigenvalue [eV]
      1       2.00000          -9.898742         -269.35847
      2       2.00000          -9.898680         -269.35678
      3       2.00000          -9.898301         -269.34649
      4       2.00000          -9.898206         -269.34389
      5       2.00000          -9.897424         -269.32260
      6       2.00000          -9.897390         -269.32169
      7       2.00000          -0.781791          -21.27361
      8       2.00000          -0.678422          -18.46079
      9       2.00000          -0.677355          -18.43176
     10       2.00000          -0.545400          -14.84110
     11       2.00000          -0.543266          -14.78301
     12       2.00000          -0.474115          -12.90132
     13       2.00000          -0.408830          -11.12484
     14       2.00000          -0.401205          -10.91734
     15       2.00000          -0.375843          -10.22720
     16       2.00000          -0.374185          -10.18210
     17       2.00000          -0.334632           -9.10580
     18       2.00000          -0.302453           -8.23018
     19       2.00000          -0.300004           -8.16354
     20       2.00000          -0.233401           -6.35117
     21       2.00000          -0.232627           -6.33010
     22       0.00000          -0.043472           -1.18294
     23       0.00000          -0.041643           -1.13317
     24       0.00000          -0.005195           -0.14136
     25       0.00000           0.018927            0.51504
     26       0.00000           0.019192            0.52224
     27       0.00000           0.044876            1.22115
     28       0.00000           0.045276            1.23202
     29       0.00000           0.080815            2.19908
     30       0.00000           0.098318            2.67536
     31       0.00000           0.104087            2.83234
     32       0.00000           0.123757            3.36759
     33       0.00000           0.156827            4.26747
     34       0.00000           0.166254            4.52399
     35       0.00000           0.166542            4.53184
     36       0.00000           0.166814            4.53925
     37       0.00000           0.167542            4.55904
     38       0.00000           0.195193            5.31147
     39       0.00000           0.195684            5.32483
     40       0.00000           0.220489            5.99980
     41       0.00000           0.227917            6.20194
     42       0.00000           0.228909            6.22893
     43       0.00000           0.236376            6.43213
     44       0.00000           0.267962            7.29161
     45       0.00000           0.268129            7.29615
     46       0.00000           0.268699            7.31168
     47       0.00000           0.269512            7.33380
     48       0.00000           0.281643            7.66389

  Highest occupied state (VBM) at     -6.33010254 eV
  | Occupation number:      2.00000000

  Lowest unoccupied state (CBM) at    -1.18293848 eV
  | Occupation number:      0.00000000

  Overall HOMO-LUMO gap:      5.14716406 eV.

  Self-consistency cycle converged.

  End self-consistency iteration #    12       :  max(cpu_time)    wall_clock(cpu1)
  | Time for this iteration                    :        0.373 s           0.376 s
  | Charge density update                      :        0.070 s           0.068 s
  | Density mixing                             :        0.002 s           0.002 s
  | Hartree multipole update                   :        0.004 s           0.004 s
  | Hartree multipole summation                :        0.054 s           0.054 s
  | Integration                                :        0.224 s           0.224 s
  | Solution of K.-S. eqns.                    :        0.016 s           0.016 s
  | Total energy evaluation                    :        0.000 s           0.002 s

  Partial memory accounting:
  | Current value for overall tracked memory usage on task 0  :           0.357 MB
  | Peak value for overall tracked memory usage on task 0     :           6.147 MB after allocating zora_vector2
  | Largest tracked array allocation on task 0 so far         :           1.524 MB  when allocating zora_vector1
  Note:  These values currently only include a subset of arrays which are explicitly tracked.
  The "true" memory usage will be greater.
------------------------------------------------------------
  |------------------------------------------------------
  | Final ELSI Output
  |------------------------------------------------------
  |
  | Physical Properties
  |   Number of electrons       :        0.42000000E+02
  |   Number of spins           :                     1
  |   Number of k-points        :                     1
  |   Number of states          :                    48
  |
  | Matrix Properties
  |   Matrix format             :           BLACS_DENSE
  |   Number of basis functions :                   324
  |   Matrix sparsity           :        0.00000000E+00
  |
  | Computational Details
  |   Parallel mode             :            MULTI_PROC
  |   Number of MPI tasks       :                    56
  |   Solver requested          :                  ELPA
  |   Number of ELSI calls      :                    13
  |
  |------------------------------------------------------
  | ELSI Project (c)  elsi-interchange.org
  |------------------------------------------------------

------------------------------------------------------------
          Post-processing: scaled ZORA corrections to eigenvalues and total energy.

  Date     :  20210620, Time     :  160903.932
------------------------------------------------------------
  Computing correction matrix for scaled ZORA eigenvalues.
  Evaluating scaled zora correction for each Kohn-Sham eigenstate.
  Evaluating scaled zora correction for each Kohn-Sham eigenstate.
  Time get_set_sparse_local_matrix_scalapack:     0.221376 s
  Writing Kohn-Sham eigenvalues.

  State    Occupation    Eigenvalue [Ha]    Eigenvalue [eV]
      1       2.00000          -9.894543         -269.24421
      2       2.00000          -9.894481         -269.24252
      3       2.00000          -9.894102         -269.23221
      4       2.00000          -9.894006         -269.22959
      5       2.00000          -9.893224         -269.20831
      6       2.00000          -9.893190         -269.20740
      7       2.00000          -0.781760          -21.27276
      8       2.00000          -0.678392          -18.46000
      9       2.00000          -0.677326          -18.43097
     10       2.00000          -0.545379          -14.84051
     11       2.00000          -0.543244          -14.78243
     12       2.00000          -0.474103          -12.90100
     13       2.00000          -0.408816          -11.12445
     14       2.00000          -0.401189          -10.91690
     15       2.00000          -0.375830          -10.22686
     16       2.00000          -0.374173          -10.18177
     17       2.00000          -0.334623           -9.10557
     18       2.00000          -0.302442           -8.22987
     19       2.00000          -0.299993           -8.16323
     20       2.00000          -0.233394           -6.35098
     21       2.00000          -0.232620           -6.32991
     22       0.00000          -0.043471           -1.18290
     23       0.00000          -0.041642           -1.13313
     24       0.00000          -0.005195           -0.14135
     25       0.00000           0.018927            0.51504
     26       0.00000           0.019192            0.52224
     27       0.00000           0.044876            1.22113
     28       0.00000           0.045276            1.23201
     29       0.00000           0.080814            2.19905
     30       0.00000           0.098316            2.67530
     31       0.00000           0.104083            2.83223
     32       0.00000           0.123755            3.36754
     33       0.00000           0.156824            4.26741
     34       0.00000           0.166251            4.52392
     35       0.00000           0.166540            4.53177
     36       0.00000           0.166811            4.53915
     37       0.00000           0.167538            4.55895
     38       0.00000           0.195188            5.31134
     39       0.00000           0.195679            5.32469
     40       0.00000           0.220484            5.99966
     41       0.00000           0.227910            6.20176
     42       0.00000           0.228902            6.22875
     43       0.00000           0.236368            6.43191
     44       0.00000           0.267956            7.29145
     45       0.00000           0.268123            7.29599
     46       0.00000           0.268693            7.31151
     47       0.00000           0.269506            7.33363
     48       0.00000           0.281632            7.66359

  Highest occupied state (VBM) at     -6.32991073 eV
  | Occupation number:      2.00000000

  Lowest unoccupied state (CBM) at    -1.18289648 eV
  | Occupation number:      0.00000000

  Overall HOMO-LUMO gap:      5.14701425 eV.

  Total energy components:
  | Sum of eigenvalues            :        -132.05365832 Ha       -3593.36287117 eV
  | XC energy correction          :         -34.51479268 Ha        -939.19529452 eV
  | XC potential correction       :          44.33496543 Ha        1206.41579121 eV
  | Free-atom electrostatic energy:        -100.93144702 Ha       -2746.48441308 eV
  | Hartree energy correction     :          -8.97107159 Ha        -244.11527850 eV
  | Entropy correction            :           0.00000000 Ha           0.00000000 eV
  | ---------------------------
  | Total energy                  :        -232.13600418 Ha       -6316.74206605 eV
  | Total energy, T -> 0          :        -232.13600418 Ha       -6316.74206605 eV  <-- do not rely on this value for anything but (periodic) metals
  | Electronic free energy        :        -232.13600418 Ha       -6316.74206605 eV

  Derived energy quantities:
  | Kinetic energy                :         231.47552875 Ha        6298.76961521 eV
  | Electrostatic energy          :        -429.09674025 Ha      -11676.31638675 eV
  | Energy correction for multipole
  | error in Hartree potential    :          -0.02350909 Ha          -0.63971482 eV
  | Sum of eigenvalues per atom                           :        -299.44690593 eV
  | Total energy (T->0) per atom                          :        -526.39517217 eV  <-- do not rely on this value for anything but (periodic) metals
  | Electronic free energy per atom                       :        -526.39517217 eV
  End evaluation of scaled ZORA corrections.
  | Time for scaled ZORA corrections           :        0.302 s           0.302 s
------------------------------------------------------------

  Energy and forces in a compact form:
  | Total energy uncorrected      :         -0.631674206605446E+04 eV
  | Total energy corrected        :         -0.631674206605446E+04 eV  <-- do not rely on this value for anything but (periodic) metals
  | Electronic free energy        :         -0.631674206605446E+04 eV

  ------------------------------------ 
  Start decomposition of the XC Energy 
  ------------------------------------ 
  X and C from original XC functional choice 
  Hartree-Fock Energy :          0.000000000 Ha              0.000000000 eV
  X Energy            :        -33.143469232 Ha           -901.879684946 eV
  C Energy            :         -1.371323446 Ha            -37.315609573 eV
  Total XC Energy     :        -34.514792679 Ha           -939.195294519 eV
  ------------------------------------ 
  LDA X and C from self-consistent density 
  X Energy LDA        :        -29.981650684 Ha           -815.842224703 eV
  C Energy LDA        :         -2.669827462 Ha            -72.649701611 eV
  ------------------------------------ 
  End decomposition of the XC Energy 
  ------------------------------------ 

------------------------------------------------------------

------------------------------------------------------------------------------
  Final output of selected total energy values:

  The following output summarizes some interesting total energy values
  at the end of a run (AFTER all relaxation, molecular dynamics, etc.).

  | Total energy of the DFT / Hartree-Fock s.c.f. calculation      :          -6316.742066054 eV
  | Final zero-broadening corrected energy (caution - metals only) :          -6316.742066054 eV
  | For reference only, the value of 1 Hartree used in FHI-aims is :             27.211384500 eV

  Before relying on these values, please be sure to understand exactly which
  total energy value is referred to by a given number. Different objects may
  all carry the same name 'total energy'. Definitions:

  Total energy of the DFT / Hartree-Fock s.c.f. calculation:
  | Note that this energy does not include ANY quantities calculated after the
  | s.c.f. cycle, in particular not ANY RPA, MP2, etc. many-body perturbation terms.
  | Scalar relativistic effects have been included in the 'scaled ZORA' approximation.

  Final zero-broadening corrected energy:
  | For metallic systems only, a broadening of the occupation numbers at the Fermi
  | level can be extrapolated back to zero broadening by an electron-gas inspired
  | formula. For all systems that are not real metals, this value can be
  | meaningless and should be avoided.

------------------------------------------------------------------------------
  Methods described in the following list of references were used in this FHI-aims run.
  If you publish the results, please make sure to cite these reference if they apply.
  FHI-aims is an academic code, and for our developers (often, Ph.D. students
  and postdocs), scientific credit in the community is essential.
  Thank you for helping us!

  For any use of FHI-aims, please cite:

    Volker Blum, Ralf Gehrke, Felix Hanke, Paula Havu, Ville Havu,
    Xinguo Ren, Karsten Reuter, and Matthias Scheffler
    'Ab initio molecular simulations with numeric atom-centered orbitals'
    Computer Physics Communications 180, 2175-2196 (2009)
    http://dx.doi.org/10.1016/j.cpc.2009.06.022


  The scalable eigensolver library ELPA was used in your run.
  ELPA is essential especially for large systems on hundreds or thousands of CPUs.
  For ELPA, please cite:

    Andreas Marek, Volker Blum, Rainer Johanni, Ville Havu, Bruno Lang,
    Thomas Auckenthaler, Alexander Heinecke, Hans-Joachim Bungartz, and Hermann Lederer,
    'The ELPA Library - Scalable Parallel Eigenvalue Solutions
    for Electronic Structure Theory and Computational Science'
    The Journal of Physics: Condensed Matter 26, 213201 (2014).
    http://dx.doi.org/10.1088/0953-8984/26/21/213201


  The ELSI infrastructure was used in your run to solve the Kohn-Sham electronic structure.
  Please check out http://elsi-interchange.org to learn more.
  If scalability is important for your project, please acknowledge ELSI by citing:

    V. W-z. Yu, F. Corsetti, A. Garcia, W. P. Huhn, M. Jacquelin, W. Jia,
    B. Lange, L. Lin, J. Lu, W. Mi, A. Seifitokaldani, A. Vazquez-Mayagoitia,
    C. Yang, H. Yang, and V. Blum
    'ELSI: A unified software interface for Kohn-Sham electronic structure solvers'
    Computer Physics Communications 222, 267-285 (2018).
    http://dx.doi.org/10.1016/j.cpc.2017.09.007


  For the real-space grid partitioning and parallelization used in this calculation, please cite:

    Ville Havu, Volker Blum, Paula Havu, and Matthias Scheffler,
    'Efficient O(N) integration for all-electron electronic structure calculation'
    'using numerically tabulated basis functions'
    Journal of Computational Physics 228, 8367-8379 (2009).
    http://dx.doi.org/10.1016/j.jcp.2009.08.008

  Of course, there are many other important community references, e.g., those cited in the
  above references. Our list is limited to references that describe implementations in the
  FHI-aims code. The reason is purely practical (length of this list) - please credit others as well.

------------------------------------------------------------
          Leaving FHI-aims.
          Date     :  20210620, Time     :  160904.270

          Computational steps:
          | Number of self-consistency cycles          :           12
          | Number of SCF (re)initializations          :            1

          Detailed time accounting                     :  max(cpu_time)    wall_clock(cpu1)
          | Total time                                 :        5.774 s           5.950 s
          | Preparation time                           :        0.179 s           0.185 s
          | Boundary condition initalization           :        0.001 s           0.007 s
          | Grid partitioning                          :        0.139 s           0.143 s
          | Preloading free-atom quantities on grid    :        0.016 s           0.019 s
          | Free-atom superposition energy             :        0.010 s           0.012 s
          | Total time for integrations                :        3.046 s           3.051 s
          | Total time for solution of K.-S. equations :        0.248 s           0.267 s
          | Total time for density update              :        0.852 s           0.832 s
          | Total time for mixing                      :        0.019 s           0.022 s
          | Total time for Hartree multipole update    :        0.048 s           0.051 s
          | Total time for Hartree multipole sum       :        0.656 s           0.659 s
          | Total time for total energy evaluation     :        0.005 s           0.024 s
          | Total time for scaled ZORA corrections     :        0.302 s           0.302 s

          Partial memory accounting:
          | Residual value for overall tracked memory usage across tasks :     0.000000 MB (should be 0.000000 MB)
          | Peak values for overall tracked memory usage (after allocating zora_vector2):
          |   Minimum:        6.098 MB (on task 56)
          |   Maximum:        6.233 MB (on task  6)
          |   Average:        6.200 MB
          | Largest tracked array allocation (zora_vector1):
          |   Minimum:        1.524 MB (on task  1)
          |   Maximum:        1.524 MB (on task  1)
          |   Average:        1.524 MB
          Note:  These values currently only include a subset of arrays which are explicitly tracked.
          The "true" memory usage will be greater.

          Have a nice day.
------------------------------------------------------------
