  MPI-parallelism will be employed.
------------------------------------------------------------
          Invoking FHI-aims ...
          Version 180607
          Git rev. (modified): 6724847 Fix JSON memory corruption in scf_solver
          Compiled on 2018/06/27 at 16:00:31 on host coe.psc.edu.

          When using FHI-aims, please cite the following reference:

          Volker Blum, Ralf Gehrke, Felix Hanke, Paula Havu,
          Ville Havu, Xinguo Ren, Karsten Reuter, and Matthias Scheffler,
          'Ab Initio Molecular Simulations with Numeric Atom-Centered Orbitals',
          Computer Physics Communications 180, 2175-2196 (2009)

          For any questions about FHI-aims, please visit the aimsclub website
          with its forums and wiki. Contributions to both the forums and the
          wiki are warmly encouraged - they are for you, and everyone is welcome there.

------------------------------------------------------------



  Date     :  20210620, Time     :  173940.308
  Time zero on CPU 1             :   0.313676000000000E+00  s.
  Internal wall clock time zero  :           393442780.308  s.

  FHI-aims created a unique identifier for this run for later identification
  aims_uuid : AFD80573-89BB-4800-A232-CE8CCBEA6FA9

  Using       56 parallel tasks.
  Task        0 on host d021 reporting.
  Task        1 on host d021 reporting.
  Task        2 on host d021 reporting.
  Task        3 on host d021 reporting.
  Task        4 on host d021 reporting.
  Task        5 on host d021 reporting.
  Task        6 on host d021 reporting.
  Task        7 on host d021 reporting.
  Task        8 on host d021 reporting.
  Task        9 on host d021 reporting.
  Task       10 on host d021 reporting.
  Task       11 on host d021 reporting.
  Task       12 on host d021 reporting.
  Task       13 on host d021 reporting.
  Task       14 on host d021 reporting.
  Task       15 on host d021 reporting.
  Task       16 on host d021 reporting.
  Task       17 on host d021 reporting.
  Task       18 on host d021 reporting.
  Task       19 on host d021 reporting.
  Task       20 on host d021 reporting.
  Task       21 on host d021 reporting.
  Task       22 on host d021 reporting.
  Task       23 on host d021 reporting.
  Task       24 on host d021 reporting.
  Task       25 on host d021 reporting.
  Task       26 on host d021 reporting.
  Task       27 on host d021 reporting.
  Task       28 on host d021 reporting.
  Task       29 on host d021 reporting.
  Task       30 on host d021 reporting.
  Task       31 on host d021 reporting.
  Task       32 on host d021 reporting.
  Task       33 on host d021 reporting.
  Task       34 on host d021 reporting.
  Task       35 on host d021 reporting.
  Task       36 on host d021 reporting.
  Task       37 on host d021 reporting.
  Task       38 on host d021 reporting.
  Task       39 on host d021 reporting.
  Task       40 on host d021 reporting.
  Task       41 on host d021 reporting.
  Task       42 on host d021 reporting.
  Task       43 on host d021 reporting.
  Task       44 on host d021 reporting.
  Task       45 on host d021 reporting.
  Task       46 on host d021 reporting.
  Task       47 on host d021 reporting.
  Task       48 on host d021 reporting.
  Task       49 on host d021 reporting.
  Task       50 on host d021 reporting.
  Task       51 on host d021 reporting.
  Task       52 on host d021 reporting.
  Task       53 on host d021 reporting.
  Task       54 on host d021 reporting.
  Task       55 on host d021 reporting.

  Performing system and environment tests:
  *** Environment variable OMP_NUM_THREADS is not set
  *** For performance reasons you might want to set it to 1
  | Stacksize not measured: no C compiler
  | Checking for scalapack...
  | Testing pdtran()...
  | All pdtran() tests passed.

  Obtaining array dimensions for all initial allocations:
  
  -----------------------------------------------------------------------
  Parsing control.in (first pass over file, find array dimensions only).
  The contents of control.in will be repeated verbatim below
  unless switched off by setting 'verbatim_writeout .false.' .
  in the first line of control.in .
  -----------------------------------------------------------------------
  
  #===============================================================================
  # FHI-aims file: ./Runs/es/control.in
  # Created using the Atomic Simulation Environment (ASE)
  # Mon Jan 13 16:04:38 2020
  #===============================================================================
  xc                                 pbe
  relativistic                       zora scalar 1e-12
  occupation_type                    gaussian 0.0001
  load_balancing                     .true.
  KS_method                          scalapack_fast
  mixer                              pulay
  n_max_pulay                        5
  charge_mix_param                   0.4
  sc_accuracy_etot                   1e-6
  sc_accuracy_eev                    1e-4
  sc_accuracy_rho                    1e-6
  sc_iter_limit                      100
  prodbas_threshold                  1e-4
  basis_threshold                    1e-5
  override_illconditioning           .true.
  use_logsbt                         .true.
  spin                               none
  charge                             0
  #===============================================================================
  
  ################################################################################
  #
  #  FHI-aims code project
  # Volker Blum, Fritz Haber Institute Berlin, 2009
  #
  #  Suggested "tight" defaults for H atom (to be pasted into control.in file)
  #
  ################################################################################
    species        H
  #     global species definitions
      nucleus             1
      mass                1.00794
  #
      l_hartree           6
  #
      cut_pot             4.0  2.0  1.0
      basis_dep_cutoff    1e-4
  #
      radial_base         24 7.0
      radial_multiplier   2
      angular_grids       specified
        division   0.1930   50
        division   0.3175  110
        division   0.4293  194
        division   0.5066  302
        division   0.5626  434
  #      division   0.5922  590
  #      division   0.6227  974
  #      division   0.6868 1202
  #      outer_grid  770
        outer_grid  434
  ################################################################################
  #
  #  Definition of "minimal" basis
  #
  ################################################################################
  #     valence basis states
      valence      1  s   1.
  #     ion occupancy
      ion_occ      1  s   0.5
  ################################################################################
  #
  #  Suggested additional basis functions. For production calculations,
  #  uncomment them one after another (the most important basis functions are
  #  listed first).
  #
  #  Basis constructed for dimers: 0.5 A, 0.7 A, 1.0 A, 1.5 A, 2.5 A
  #
  ################################################################################
  #  "First tier" - improvements: -1014.90 meV to -62.69 meV
       hydro 2 s 2.1
       hydro 2 p 3.5
  #  "Second tier" - improvements: -12.89 meV to -1.83 meV
       hydro 1 s 0.85
       hydro 2 p 3.7
       hydro 2 s 1.2
       hydro 3 d 7
  #  "Third tier" - improvements: -0.25 meV to -0.12 meV
  #     hydro 4 f 11.2
  #     hydro 3 p 4.8
  #     hydro 4 d 9
  #     hydro 3 s 3.2
  ################################################################################
  #
  # For methods that use the localized form of the "resolution of identity" for
  # the two-electron Coulomb operator (RI_method LVL), particularly Hartree-Fock and
  # hybrid density functional calculations, the highest accuracy can be obtained by
  # uncommenting the line beginning with "for_aux"  below, thus adding an extra g radial
  # function to the construction of the product basis set for the expansion.
  # See Ref. New J. Phys. 17, 093020 (2015) for more information, particularly Figs. 1 and 6.
  #
  ################################################################################
  #
  # for_aux hydro 5 g 6.0
  ################################################################################
  #
  #  FHI-aims code project
  # Volker Blum, Fritz Haber Institute Berlin, 2009
  #
  #  Suggested "tight" defaults for C atom (to be pasted into control.in file)
  #
  ################################################################################
    species        C
  #     global species definitions
      nucleus             6
      mass                12.0107
  #
      l_hartree           6
  #
      cut_pot             4.0  2.0  1.0
      basis_dep_cutoff    1e-4
  #
      radial_base         34 7.0
      radial_multiplier   2
      angular_grids specified
        division   0.2187   50
        division   0.4416  110
        division   0.6335  194
        division   0.7727  302
        division   0.8772  434
  #      division   0.9334  590
  #      division   0.9924  770
  #      division   1.0230  974
  #      division   1.5020 1202
  #     outer_grid  974
        outer_grid  434
  ################################################################################
  #
  #  Definition of "minimal" basis
  #
  ################################################################################
  #     valence basis states
      valence      2  s   2.
      valence      2  p   2.
  #     ion occupancy
      ion_occ      2  s   1.
      ion_occ      2  p   1.
  ################################################################################
  #
  #  Suggested additional basis functions. For production calculations,
  #  uncomment them one after another (the most important basis functions are
  #  listed first).
  #
  #  Constructed for dimers: 1.0 A, 1.25 A, 1.5 A, 2.0 A, 3.0 A
  #
  ################################################################################
  #  "First tier" - improvements: -1214.57 meV to -155.61 meV
       hydro 2 p 1.7
       hydro 3 d 6
       hydro 2 s 4.9
  #  "Second tier" - improvements: -67.75 meV to -5.23 meV
       hydro 4 f 9.8
       hydro 3 p 5.2
       hydro 3 s 4.3
       hydro 5 g 14.4
       hydro 3 d 6.2
  #  "Third tier" - improvements: -2.43 meV to -0.60 meV
  #     hydro 2 p 5.6
  #     hydro 2 s 1.4
  #     hydro 3 d 4.9
  #     hydro 4 f 11.2
  #  "Fourth tier" - improvements: -0.39 meV to -0.18 meV
  #     hydro 2 p 2.1
  #     hydro 5 g 16.4
  #     hydro 4 d 13.2
  #     hydro 3 s 13.6
  #     hydro 4 f 17.6
  #  Further basis functions - improvements: -0.08 meV and below
  #     hydro 3 s 2
  #     hydro 3 p 6
  #     hydro 4 d 20
  ################################################################################
  #
  # For methods that use the localized form of the "resolution of identity" for
  # the two-electron Coulomb operator (RI_method LVL), particularly Hartree-Fock and
  # hybrid density functional calculations, the highest accuracy can be obtained by
  # uncommenting the line beginning with "for_aux"  below, thus adding an extra g radial
  # function to the construction of the product basis set for the expansion.
  # See Ref. New J. Phys. 17, 093020 (2015) for more information, particularly Figs. 1 and 6.
  #
  ################################################################################
  #
  # for_aux hydro 5 g 6.0
  
  -----------------------------------------------------------------------
  Completed first pass over input file control.in .
  -----------------------------------------------------------------------
  
  
  -----------------------------------------------------------------------
  Parsing geometry.in (first pass over file, find array dimensions only).
  The contents of geometry.in will be repeated verbatim below
  unless switched off by setting 'verbatim_writeout .false.' .
  in the first line of geometry.in .
  -----------------------------------------------------------------------
  
  #=======================================================
  # FHI-aims file: geometry.in
  # Created using the Atomic Simulation Environment (ASE)
  # Sun Jun 20 15:47:02 2021
  #=======================================================
  atom 48.6860289999999978 38.8196569999999994 27.5845419999999990 H
  atom 49.4326390000000018 38.7218340000000012 26.7968779999999995 C
  atom 49.3606499999999997 37.6570919999999987 25.9154550000000015 C
  atom 50.4577770000000001 39.6491230000000030 26.6929279999999984 C
  atom 48.5526109999999989 36.9352599999999995 26.0186129999999984 H
  atom 50.2916239999999988 37.5057669999999987 24.8901110000000010 C
  atom 51.4032279999999986 39.5027290000000022 25.6935140000000004 C
  atom 50.5175079999999994 40.4783979999999985 27.3973639999999996 H
  atom 50.1825749999999999 36.3635370000000009 23.9344059999999992 C
  atom 51.3188930000000028 38.4503910000000033 24.7981639999999999 C
  atom 52.2238940000000014 40.2143250000000023 25.6091540000000002 H
  atom 50.1706410000000034 35.0324310000000025 24.4029729999999994 C
  atom 50.0625289999999978 36.5887889999999985 22.5442180000000008 C
  atom 52.0670989999999989 38.3501109999999983 24.0127650000000017 H
  atom 50.0496839999999992 33.9961770000000030 23.4908639999999984 C
  atom 50.3315630000000027 34.6448400000000021 25.8380019999999995 C
  atom 49.9277190000000033 35.5285030000000006 21.6348260000000003 C
  atom 50.1093609999999998 37.9982570000000024 22.0270730000000015 C
  atom 49.9193920000000020 34.2012659999999968 22.1224169999999987 C
  atom 50.0630790000000019 32.9718230000000005 23.8591049999999996 H
  atom 49.3959019999999995 33.8030270000000002 26.4369030000000009 C
  atom 51.4665669999999977 35.0010309999999976 26.5618020000000001 C
  atom 49.8168030000000002 35.7760290000000012 20.1635610000000014 C
  atom 49.0442239999999998 38.8691019999999980 22.2140239999999984 C
  atom 51.2442070000000029 38.4518300000000011 21.3626089999999991 C
  atom 49.7523219999999995 33.0025189999999995 21.2585450000000016 C
  atom 48.5049130000000019 33.5111699999999999 25.8788799999999988 H
  atom 49.5920729999999992 33.3273760000000010 27.7231419999999993 C
  atom 51.6707759999999965 34.5043640000000025 27.8373959999999983 C
  atom 52.2187890000000010 35.6447659999999971 26.1098800000000004 H
  atom 48.7836429999999979 36.5484050000000025 19.6304499999999997 C
  atom 50.7326470000000000 35.2058570000000017 19.2816860000000005 C
  atom 48.1478719999999996 38.5265360000000001 22.7298100000000005 H
  atom 49.1214190000000031 40.1777149999999992 21.7417200000000008 C
  atom 52.0881270000000001 37.7764110000000031 21.2249149999999993 H
  atom 51.3178440000000009 39.7561490000000006 20.9052520000000008 C
  atom 48.6404420000000002 32.8557739999999967 20.4249079999999985 C
  atom 50.6778839999999988 31.9574460000000009 21.3168620000000004 C
  atom 48.8548860000000005 32.6638680000000008 28.1761960000000009 H
  atom 50.7338710000000006 33.6669660000000022 28.4222560000000009 C
  atom 52.5911100000000005 34.7577410000000029 28.3619009999999996 H
  atom 48.6742789999999985 36.7285180000000011 18.2607570000000017 C
  atom 48.0447050000000004 36.9908690000000036 20.2979710000000004 H
  atom 50.6302650000000014 35.4044379999999990 17.9182209999999991 C
  atom 51.5458819999999989 34.5971550000000008 19.6720070000000007 H
  atom 48.2890620000000013 40.8616290000000006 21.9115730000000006 H
  atom 50.2597269999999980 40.6165790000000015 21.0935619999999986 C
  atom 52.2275459999999967 40.0988850000000028 20.4130180000000010 H
  atom 48.4558549999999997 31.6983670000000011 19.6889930000000000 C
  atom 47.8976660000000010 33.6489970000000014 20.3681769999999993 H
  atom 50.5081580000000017 30.8163379999999982 20.5521840000000005 C
  atom 51.5477980000000002 32.0487419999999972 21.9696619999999996 H
  atom 50.8982620000000026 33.2676999999999978 29.4224619999999994 H
  atom 47.8411550000000005 37.3064930000000032 17.8612639999999985 H
  atom 49.5942039999999977 36.1606379999999987 17.4022080000000017 C
  atom 51.3607969999999980 34.9495199999999997 17.2490009999999998 H
  atom 50.3221509999999981 41.6478529999999978 20.7457029999999989 H
  atom 47.5628010000000003 31.5974670000000017 19.0733330000000016 H
  atom 49.3939859999999982 30.6767989999999990 19.7408539999999988 C
  atom 51.2587479999999971 30.0264969999999991 20.5927229999999994 H
  atom 49.5045929999999998 36.2989430000000013 16.3253419999999991 H
  atom 49.2610150000000004 29.7752090000000003 19.1434260000000016 H
  
  -----------------------------------------------------------------------
  Completed first pass over input file geometry.in .
  -----------------------------------------------------------------------
  

  Basic array size parameters:
  | Number of species                 :        2
  | Number of atoms                   :       62
  | Max. basis fn. angular momentum   :        4
  | Max. atomic/ionic basis occupied n:        2
  | Max. number of basis fn. types    :        2
  | Max. radial fns per species/type  :        8
  | Max. logarithmic grid size        :     1277
  | Max. radial integration grid size :       69
  | Max. angular integration grid size:      434
  | Max. angular grid division number :        8
  | Radial grid for Hartree potential :     1277
  | Number of spin channels           :        1

------------------------------------------------------------
          Reading file control.in.
------------------------------------------------------------
  XC: Using PBE gradient-corrected functionals.
  Scalar relativistic treatment of kinetic energy: ZORA.
  Threshold value for ZORA:   0.100000E-11
  Occupation type: Gaussian broadening, width =   0.100000E-03 eV.
  Since 'load_balancing .true.' is present in control.in, automatically turning on 'use_local_index .true.'.
  Using load balancing for integrations.
  Kohn-Sham electronic structure solved by the ELSI library.
  Using pulay charge density mixing.
  Pulay mixing - number of memorized iterations:    5
  Charge density mixing - mixing parameter:     0.4000
  Convergence accuracy of total energy:  0.1000E-05
  Convergence accuracy of sum of eigenvalues:  0.1000E-03
  Convergence accuracy of self-consistent charge density:  0.1000E-05
  Maximum number of s.-c. iterations  :   100
  * Ignoring prodbas_threshold
  Threshold for basis singularities:  0.1000E-04
  override_illconditioning: Explicitly overriding any built-in checks for an ill-conditioned overlap matrix.
  *** WARNING: If you use this flag, you should really know what you are doing.
  *** DO NOT keep this flag set by default in all your control.in files.
  Using 1D integrations for auxiliary 2-center integrals.
  Spin treatment: No spin polarisation.
  Charge =   0.000000E+00: Neutral system requested explicitly.
 
  Reading configuration options for species H                   .
  | Found nuclear charge :   1.0000
  | Found atomic mass :    1.00794000000000      amu
  | Found l_max for Hartree potential  :   6
  | Found cutoff potl. onset [A], width [A], scale factor :    4.00000    2.00000    1.00000
  | Threshold for basis-dependent cutoff potential is   0.100000E-03
  | Found data for basic radial integration grid :    24 points, outermost radius =    7.000 A
  | Found multiplier for basic radial grid :   2
  | Found angular grid specification: user-specified.
  | Specified grid contains     6 separate shells.
  | Check grid settings after all constraints further below.
  | Found free-atom valence shell :  1 s   1.000
  | No ionic wave fns used. Skipping ion_occ.
  | Found hydrogenic basis function :  2 s   2.100
  | Found hydrogenic basis function :  2 p   3.500
  | Found hydrogenic basis function :  1 s   0.850
  | Found hydrogenic basis function :  2 p   3.700
  | Found hydrogenic basis function :  2 s   1.200
  | Found hydrogenic basis function :  3 d   7.000
  Species H                   : Missing cutoff potential type.
  Defaulting to exp(1/x)/(1-x)^2 type cutoff potential.
  Species H : No 'logarithmic' tag. Using default grid for free atom:
  | Default logarithmic grid data [bohr] : 0.1000E-03 0.1000E+03 0.1012E+01
  Species H : On-site basis accuracy parameter (for Gram-Schmidt orthonormalisation) not specified.
  Using default value basis_acc =  0.1000000E-03.
  Species H                   : Using default innermost maximum threshold i_radial=  2 for radial functions.
  Species H                   : Default cutoff onset for free atom density etc. : 0.40000000E+01 AA.
  Species H                   : Basic radial grid will be enhanced according to radial_multiplier =   2, to contain    49 grid points.
 
  Reading configuration options for species C                   .
  | Found nuclear charge :   6.0000
  | Found atomic mass :    12.0107000000000      amu
  | Found l_max for Hartree potential  :   6
  | Found cutoff potl. onset [A], width [A], scale factor :    4.00000    2.00000    1.00000
  | Threshold for basis-dependent cutoff potential is   0.100000E-03
  | Found data for basic radial integration grid :    34 points, outermost radius =    7.000 A
  | Found multiplier for basic radial grid :   2
  | Found angular grid specification: user-specified.
  | Specified grid contains     6 separate shells.
  | Check grid settings after all constraints further below.
  | Found free-atom valence shell :  2 s   2.000
  | Found free-atom valence shell :  2 p   2.000
  | No ionic wave fns used. Skipping ion_occ.
  | No ionic wave fns used. Skipping ion_occ.
  | Found hydrogenic basis function :  2 p   1.700
  | Found hydrogenic basis function :  3 d   6.000
  | Found hydrogenic basis function :  2 s   4.900
  | Found hydrogenic basis function :  4 f   9.800
  | Found hydrogenic basis function :  3 p   5.200
  | Found hydrogenic basis function :  3 s   4.300
  | Found hydrogenic basis function :  5 g  14.400
  | Found hydrogenic basis function :  3 d   6.200
  Species C                   : Missing cutoff potential type.
  Defaulting to exp(1/x)/(1-x)^2 type cutoff potential.
  Species C : No 'logarithmic' tag. Using default grid for free atom:
  | Default logarithmic grid data [bohr] : 0.1000E-03 0.1000E+03 0.1012E+01
  Species C : On-site basis accuracy parameter (for Gram-Schmidt orthonormalisation) not specified.
  Using default value basis_acc =  0.1000000E-03.
  Species C                   : Using default innermost maximum threshold i_radial=  2 for radial functions.
  Species C                   : Default cutoff onset for free atom density etc. : 0.40000000E+01 AA.
  Species C                   : Basic radial grid will be enhanced according to radial_multiplier =   2, to contain    69 grid points.
 
  Finished reading input file 'control.in'. Consistency checks are next.
 
  MPI_IN_PLACE appears to work with this MPI implementation.
  | Keeping use_mpi_in_place .true. (see manual).
  Target number of points in a grid batch is not set. Defaulting to  100
  Method for grid partitioning is not set. Defaulting to parallel hash+maxmin partitioning.
  Batch size limit is not set. Defaulting to    200
  By default, will store active basis functions for each batch.
  If in need of memory, prune_basis_once .false. can be used to disable this option.
  communication_type for Hartree potential was not specified.
  Defaulting to calc_hartree .
  Pulay mixer: Number of initial linear mixing iterations not set.
  Defaulting to    0 iterations.
  Work space size for distributed Hartree potential not set.
  Defaulting to   0.200000E+03 MB.
  Algorithm-dependent basis array size parameters:
  | n_max_pulay                         :        5
  Presetting      1001 iterations before the initial mixing cycle
  is restarted anyway using the sc_init_iter criterion / keyword.
  Presetting a factor      1.000 between actual scf density residual
  and density convergence criterion sc_accuracy_rho below which sc_init_iter
  takes no effect.
  Calculation of forces was not defined in control.in. No forces will be calculated.
  Geometry relaxation not requested: no relaxation will be performed.
  No accuracy limit for integral partition fn. given. Defaulting to  0.1000E-14.
  No threshold value for u(r) in integrations given. Defaulting to  0.1000E-05.
  No accuracy for occupation numbers given. Defaulting to  0.1000E-12.
  No threshold value for occupation numbers given. Defaulting to  0.0000E+00.
  No accuracy for fermi level given. Defaulting to  0.1000E-19.
  Maximum # of iterations to find E_F not set. Defaulting to  200.
  Will not use alltoall communication since running on < 1024 CPUs.
  partition_type (choice of integration weights) for integrals was not specified.
  | Using a version of the partition function of Stratmann and coworkers ('stratmann_sparse').
  | At each grid point, the set of atoms used to build the partition table is smoothly restricted to
  | only those atoms whose free-atom density would be non-zero at that grid point.
  Partitioning for Hartree potential was not defined. Using partition_type for integrals.
  | Adjusted default value of keyword multip_moments_threshold to:       0.10000000E-11
  | This value may affect high angular momentum components of the Hartree potential in periodic systems.
  No q(lm)/r^(l+1) cutoff set for long-range Hartree potential.
  | Using default value of  0.100000E-09 .
  | Verify using the multipole_threshold keyword.
  Defaulting to new monopole extrapolation.
  Density update method: automatic selection selected.
 * Warning: use_local_index and/or load_balancing needs packed_matrix_format = index
 * Changing the default setting to packed_matrix_format = index
------------------------------------------------------------


------------------------------------------------------------
          Reading geometry description geometry.in.
------------------------------------------------------------
  Input structure read successfully.
  The structure contains       62 atoms,  and a total of        242.000 electrons.

  Input geometry:
  | No unit cell requested.
  | Atomic structure:
  |       Atom                x [A]            y [A]            z [A]
  |    1: Species H            48.68602900       38.81965700       27.58454200
  |    2: Species C            49.43263900       38.72183400       26.79687800
  |    3: Species C            49.36065000       37.65709200       25.91545500
  |    4: Species C            50.45777700       39.64912300       26.69292800
  |    5: Species H            48.55261100       36.93526000       26.01861300
  |    6: Species C            50.29162400       37.50576700       24.89011100
  |    7: Species C            51.40322800       39.50272900       25.69351400
  |    8: Species H            50.51750800       40.47839800       27.39736400
  |    9: Species C            50.18257500       36.36353700       23.93440600
  |   10: Species C            51.31889300       38.45039100       24.79816400
  |   11: Species H            52.22389400       40.21432500       25.60915400
  |   12: Species C            50.17064100       35.03243100       24.40297300
  |   13: Species C            50.06252900       36.58878900       22.54421800
  |   14: Species H            52.06709900       38.35011100       24.01276500
  |   15: Species C            50.04968400       33.99617700       23.49086400
  |   16: Species C            50.33156300       34.64484000       25.83800200
  |   17: Species C            49.92771900       35.52850300       21.63482600
  |   18: Species C            50.10936100       37.99825700       22.02707300
  |   19: Species C            49.91939200       34.20126600       22.12241700
  |   20: Species H            50.06307900       32.97182300       23.85910500
  |   21: Species C            49.39590200       33.80302700       26.43690300
  |   22: Species C            51.46656700       35.00103100       26.56180200
  |   23: Species C            49.81680300       35.77602900       20.16356100
  |   24: Species C            49.04422400       38.86910200       22.21402400
  |   25: Species C            51.24420700       38.45183000       21.36260900
  |   26: Species C            49.75232200       33.00251900       21.25854500
  |   27: Species H            48.50491300       33.51117000       25.87888000
  |   28: Species C            49.59207300       33.32737600       27.72314200
  |   29: Species C            51.67077600       34.50436400       27.83739600
  |   30: Species H            52.21878900       35.64476600       26.10988000
  |   31: Species C            48.78364300       36.54840500       19.63045000
  |   32: Species C            50.73264700       35.20585700       19.28168600
  |   33: Species H            48.14787200       38.52653600       22.72981000
  |   34: Species C            49.12141900       40.17771500       21.74172000
  |   35: Species H            52.08812700       37.77641100       21.22491500
  |   36: Species C            51.31784400       39.75614900       20.90525200
  |   37: Species C            48.64044200       32.85577400       20.42490800
  |   38: Species C            50.67788400       31.95744600       21.31686200
  |   39: Species H            48.85488600       32.66386800       28.17619600
  |   40: Species C            50.73387100       33.66696600       28.42225600
  |   41: Species H            52.59111000       34.75774100       28.36190100
  |   42: Species C            48.67427900       36.72851800       18.26075700
  |   43: Species H            48.04470500       36.99086900       20.29797100
  |   44: Species C            50.63026500       35.40443800       17.91822100
  |   45: Species H            51.54588200       34.59715500       19.67200700
  |   46: Species H            48.28906200       40.86162900       21.91157300
  |   47: Species C            50.25972700       40.61657900       21.09356200
  |   48: Species H            52.22754600       40.09888500       20.41301800
  |   49: Species C            48.45585500       31.69836700       19.68899300
  |   50: Species H            47.89766600       33.64899700       20.36817700
  |   51: Species C            50.50815800       30.81633800       20.55218400
  |   52: Species H            51.54779800       32.04874200       21.96966200
  |   53: Species H            50.89826200       33.26770000       29.42246200
  |   54: Species H            47.84115500       37.30649300       17.86126400
  |   55: Species C            49.59420400       36.16063800       17.40220800
  |   56: Species H            51.36079700       34.94952000       17.24900100
  |   57: Species H            50.32215100       41.64785300       20.74570300
  |   58: Species H            47.56280100       31.59746700       19.07333300
  |   59: Species C            49.39398600       30.67679900       19.74085400
  |   60: Species H            51.25874800       30.02649700       20.59272300
  |   61: Species H            49.50459300       36.29894300       16.32534200
  |   62: Species H            49.26101500       29.77520900       19.14342600
  |

  | The smallest distance between any two atoms is         1.08818074 AA.
  |
  | The first atom of this pair is atom number                     37 .
  | The second atom of this pair is atom number                    50 .

  Number of empty states per atom not set in control.in - providing a guess from actual geometry.
  | Total number of empty states used during s.c.f. cycle:      147
  If you use a very high smearing, use empty_states (per atom!) in control.in to increase this value.

  Structure-dependent array size parameters: 
  | Maximum number of distinct radial functions  :       18
  | Maximum number of basis functions            :     1794
  | Number of Kohn-Sham states (occupied + empty):      268
------------------------------------------------------------

------------------------------------------------------------
          Preparing all fixed parts of the calculation.
------------------------------------------------------------
  Determining machine precision:
    2.225073858507201E-308
  Setting up grids for atomic and cluster calculations.

  Creating wave function, potential, and density for free atoms.

  Species: H

  List of occupied orbitals and eigenvalues:
    n    l              occ      energy [Ha]    energy [eV]
    1    0           1.0000        -0.238386        -6.4868


  Species: C

  List of occupied orbitals and eigenvalues:
    n    l              occ      energy [Ha]    energy [eV]
    1    0           2.0000       -10.049212      -273.4530
    2    0           2.0000        -0.504761       -13.7352
    2    1           2.0000        -0.193631        -5.2690

  Creating fixed part of basis set: Ionic, confined, hydrogenic.
 
  H                    hydrogenic:
 
  List of hydrogenic basis orbitals: 
    n    l      effective z      eigenvalue [eV]  inner max. [A]     outer max. [A]     outer radius [A]   
    2    0         2.100000       -14.9965           0.193243           1.317208           5.373006
    2    1         3.500000       -41.6672           0.602369           0.602369           4.056063
    1    0         0.850000        -9.8292           0.624871           0.624871           5.373006
    2    1         3.700000       -46.5653           0.573622           0.573622           3.910002
    2    0         1.200000        -4.5995           0.334980           2.228188           5.505995
    3    2         7.000000       -74.0753           0.680699           0.680699           3.769201
 
 
  C                    hydrogenic:
 
  List of hydrogenic basis orbitals: 
    n    l      effective z      eigenvalue [eV]  inner max. [A]     outer max. [A]     outer radius [A]   
    2    1         1.700000        -9.8152           1.245706           1.245706           5.401630
    3    2         6.000000       -54.4226           0.792453           0.792453           4.178599
    2    0         4.900000       -81.6681           0.082559           0.562749           3.353238
    4    3         9.800000       -81.6681           0.863254           0.863254           4.028125
    3    1         5.200000       -40.8774           0.305389           1.215618           4.898362
    3    0         4.300000       -27.9508           0.091041           1.610311           5.401630
    5    4        14.400000      -112.8510           0.917666           0.917666           3.883070
    3    2         6.200000       -58.1113           0.763917           0.763917           4.077671
 

  Adding cutoff potential to free-atom effective potential.
  Creating atomic-like basis functions for current effective potential.

  Species H                   :

  List of atomic basis orbitals and eigenvalues:
    n    l      energy [Ha]    energy [eV]    outer radius [A]
    1    0        -0.238386        -6.4868       5.373006


  Species C                   :

  List of atomic basis orbitals and eigenvalues:
    n    l      energy [Ha]    energy [eV]    outer radius [A]
    1    0       -10.049212      -273.4530       1.934409
    2    0        -0.504761       -13.7352       5.271162
    2    1        -0.193631        -5.2690       5.401630

  Assembling full basis from fixed parts.
  | Species H :   atomic orbital   1 s accepted.
  | Species H :    hydro orbital   2 s accepted.
  | Species H :    hydro orbital   1 s accepted.
  | Species H :    hydro orbital   2 s accepted.
  | Species H :    hydro orbital   2 p accepted.
  | Species H :    hydro orbital   2 p accepted.
  | Species H :    hydro orbital   3 d accepted.
  | Species C :   atomic orbital   1 s accepted.
  | Species C :    hydro orbital   2 s accepted.
  | Species C :   atomic orbital   2 s accepted.
  | Species C :    hydro orbital   3 s accepted.
  | Species C :    hydro orbital   3 p accepted.
  | Species C :   atomic orbital   2 p accepted.
  | Species C :    hydro orbital   2 p accepted.
  | Species C :    hydro orbital   3 d accepted.
  | Species C :    hydro orbital   3 d accepted.
  | Species C :    hydro orbital   4 f accepted.
  | Species C :    hydro orbital   5 g accepted.
 
  Basis size parameters after reduction:
  | Total number of radial functions:       18
  | Total number of basis functions :     1794
 
  Per-task memory consumption for arrays in subroutine allocate_ext:
  |           4.455296MB.
  Testing on-site integration grid accuracy.
  |  Species  Function  <phi|h_atom|phi> (log., in eV)  <phi|h_atom|phi> (rad., in eV)
           1        1                 -6.4870767962                 -6.4871688290
           1        2                 13.5032046589                 13.5028982997
           1        3                 32.8195184817                 32.8119941656
           1        4                 33.8513856511                 33.7670005767 ***
           1        5                 28.8544614965                 28.8544615203
           1        6                 59.6326952547                 59.6327656460
           1        7                 60.2719308513                 60.2719305949
           2        8               -273.4529726040               -273.4529710464
           2        9                -10.7721037319                -10.7721022101
           2       10                 17.6044132601                 17.6044162063
           2       11                 53.7706460658                 53.7706913770
           2       12                 15.0973290362                 15.0973256030
           2       13                  3.8545134692                  3.8545724687
           2       14                 12.1156992592                 12.1182024431
           2       15                 29.4352039302                 29.4352041816
           2       16                 54.8741144708                 54.8740268729
           2       17                 59.3556032049                 59.3556031382
           2       18                 93.4551837154                 93.4551838009
 * Note: Onsite integrals marked "***" above are less accurate than
 * onsite_accuracy_threshold =    0.03000 eV. Usually, this is harmless.
 * When in doubt, tighten the "radial" and/or "radial_multiplier" flags to check.

  Preparing densities etc. for the partition functions (integrals / Hartree potential).

  Preparations completed.
  max(cpu_time)          :      0.197 s.
  Wall clock time (cpu1) :      0.180 s.
------------------------------------------------------------

------------------------------------------------------------
          Begin self-consistency loop: Initialization.

          Date     :  20210620, Time     :  173940.919
------------------------------------------------------------

  Initializing index lists of integration centers etc. from given atomic structure:
  | Number of centers in hartree potential         :        62
  | Number of centers in hartree multipole         :        62
  | Number of centers in electron density summation:        62
  | Number of centers in basis integrals           :        62
  | Number of centers in integrals                 :        62
  | Number of centers in hamiltonian               :        62
  * Using 56 tasks for Scalapack Eigenvalue solver.
  Detailed listing of tasks and assigned k-points:
  (for non-periodic systems, the "k-point" denotes an internal label only)
   Task     0 k-point     1 on d021
   Task     1 k-point     1 on d021
   Task     2 k-point     1 on d021
   Task     3 k-point     1 on d021
   Task     4 k-point     1 on d021
   Task     5 k-point     1 on d021
   Task     6 k-point     1 on d021
   Task     7 k-point     1 on d021
   Task     8 k-point     1 on d021
   Task     9 k-point     1 on d021
   Task    10 k-point     1 on d021
   Task    11 k-point     1 on d021
   Task    12 k-point     1 on d021
   Task    13 k-point     1 on d021
   Task    14 k-point     1 on d021
   Task    15 k-point     1 on d021
   Task    16 k-point     1 on d021
   Task    17 k-point     1 on d021
   Task    18 k-point     1 on d021
   Task    19 k-point     1 on d021
   Task    20 k-point     1 on d021
   Task    21 k-point     1 on d021
   Task    22 k-point     1 on d021
   Task    23 k-point     1 on d021
   Task    24 k-point     1 on d021
   Task    25 k-point     1 on d021
   Task    26 k-point     1 on d021
   Task    27 k-point     1 on d021
   Task    28 k-point     1 on d021
   Task    29 k-point     1 on d021
   Task    30 k-point     1 on d021
   Task    31 k-point     1 on d021
   Task    32 k-point     1 on d021
   Task    33 k-point     1 on d021
   Task    34 k-point     1 on d021
   Task    35 k-point     1 on d021
   Task    36 k-point     1 on d021
   Task    37 k-point     1 on d021
   Task    38 k-point     1 on d021
   Task    39 k-point     1 on d021
   Task    40 k-point     1 on d021
   Task    41 k-point     1 on d021
   Task    42 k-point     1 on d021
   Task    43 k-point     1 on d021
   Task    44 k-point     1 on d021
   Task    45 k-point     1 on d021
   Task    46 k-point     1 on d021
   Task    47 k-point     1 on d021
   Task    48 k-point     1 on d021
   Task    49 k-point     1 on d021
   Task    50 k-point     1 on d021
   Task    51 k-point     1 on d021
   Task    52 k-point     1 on d021
   Task    53 k-point     1 on d021
   Task    54 k-point     1 on d021
   Task    55 k-point     1 on d021
  Tasks:    56 split into      8 X      7 BLACS grid
  Calculating block size based on n_basis =         1794 max_nprow =            8 max_npcol =            7
  ScaLAPACK block size set to:           16
  Allocating        0.466 MB for ovlp
  Allocating        0.466 MB for ham
  Allocating        0.466 MB for eigenvec
  Required Scalapack workspace - INTEGER:            1 REAL:             1
  Partitioning the integration grid into batches with parallel hashing+maxmin method.
  | Number of batches:     8890
  | Maximal batch size:     200
  | Minimal batch size:       2
  | Average batch size:     115.468
  | Standard deviation of batch sizes:      35.514

  Integration load balanced across     56 MPI tasks.
  Work distribution over tasks is as follows:
  Task      0 has      18481 integration points.
  Task      1 has      18462 integration points.
  Task      2 has      18156 integration points.
  Task      3 has      18428 integration points.
  Task      4 has      18243 integration points.
  Task      5 has      18366 integration points.
  Task      6 has      18260 integration points.
  Task      7 has      18429 integration points.
  Task      8 has      18386 integration points.
  Task      9 has      18262 integration points.
  Task     10 has      18388 integration points.
  Task     11 has      18334 integration points.
  Task     12 has      18278 integration points.
  Task     13 has      18226 integration points.
  Task     14 has      18348 integration points.
  Task     15 has      18462 integration points.
  Task     16 has      18234 integration points.
  Task     17 has      18403 integration points.
  Task     18 has      18255 integration points.
  Task     19 has      18338 integration points.
  Task     20 has      18276 integration points.
  Task     21 has      18506 integration points.
  Task     22 has      18303 integration points.
  Task     23 has      18239 integration points.
  Task     24 has      18345 integration points.
  Task     25 has      18310 integration points.
  Task     26 has      18417 integration points.
  Task     27 has      18140 integration points.
  Task     28 has      18437 integration points.
  Task     29 has      18364 integration points.
  Task     30 has      18316 integration points.
  Task     31 has      18452 integration points.
  Task     32 has      18265 integration points.
  Task     33 has      18392 integration points.
  Task     34 has      18200 integration points.
  Task     35 has      18373 integration points.
  Task     36 has      18316 integration points.
  Task     37 has      18306 integration points.
  Task     38 has      18499 integration points.
  Task     39 has      18213 integration points.
  Task     40 has      18399 integration points.
  Task     41 has      18195 integration points.
  Task     42 has      18413 integration points.
  Task     43 has      18420 integration points.
  Task     44 has      18232 integration points.
  Task     45 has      18348 integration points.
  Task     46 has      18278 integration points.
  Task     47 has      18397 integration points.
  Task     48 has      18185 integration points.
  Task     49 has      18371 integration points.
  Task     50 has      18373 integration points.
  Task     51 has      18244 integration points.
  Task     52 has      18498 integration points.
  Task     53 has      18208 integration points.
  Task     54 has      18309 integration points.
  Task     55 has      18230 integration points.
  Initializing partition tables, free-atom densities, potentials, etc. across the integration grid (initialize_grid_storage).
  | initialize_grid_storage: Actual outermost partition radius vs. multipole_radius_free
  | (-- VB: in principle, multipole_radius_free should be larger, hence this output)
  | Species        1: Confinement radius =              6.000000000000000 AA, multipole_radius_free =              6.071692442739658 AA.
  | Species        1: outer_partition_radius set to              6.071692442739658 AA .
  | Species        2: Confinement radius =              6.000000000000000 AA, multipole_radius_free =              6.029870734432609 AA.
  | Species        2: outer_partition_radius set to              6.029870734432609 AA .
  | The sparse table of interatomic distances needs     45.6360 kbyte instead of    30.7520 kbyte of memory.
  | Using the partition_type stratmann_smoother will reduce your memory usage.
  | Net number of integration points:  1026508
  | of which are non-zero points    :   806385
  Renormalizing the initial density to the exact electron count on the 3D integration grid.
  | Initial density: Formal number of electrons (from input files) :     242.0000000000
  | Integrated number of electrons on 3D grid     :     241.9998404266
  | Charge integration error                      :      -0.0001595734
  | Normalization factor for density and gradient :       1.0000006594
  Obtaining max. number of non-zero basis functions in each batch (get_n_compute_maxes).
  | Maximal number of non-zero basis functions:     1144
  Selecting the method for density update.
  Loop over occupied states selected for charge density update.
  Hamiltonian matrix size:
  | Size of matrix non-packed:               1610115
  | Size of matrix packed:         1408223
  Allocating        3.846 MB for KS_eigenvector
  use_local_index: Max. local matrix size =      1123829
  Task:     0 matrix size:     137026
  Task:     1 matrix size:     375377
  Task:     2 matrix size:     474646
  Task:     3 matrix size:     203194
  Task:     4 matrix size:     453320
  Task:     5 matrix size:     769881
  Task:     6 matrix size:     823971
  Task:     7 matrix size:     270365
  Task:     8 matrix size:     376908
  Task:     9 matrix size:     295080
  Task:    10 matrix size:     296646
  Task:    11 matrix size:     471051
  Task:    12 matrix size:     860803
  Task:    13 matrix size:     847455
  Task:    14 matrix size:     382576
  Task:    15 matrix size:     373271
  Task:    16 matrix size:     295804
  Task:    17 matrix size:     831262
  Task:    18 matrix size:     929336
  Task:    19 matrix size:     513971
  Task:    20 matrix size:     287116
  Task:    21 matrix size:     605658
  Task:    22 matrix size:     523047
  Task:    23 matrix size:     296431
  Task:    24 matrix size:     913275
  Task:    25 matrix size:     885674
  Task:    26 matrix size:     472073
  Task:    27 matrix size:     411809
  Task:    28 matrix size:     624863
  Task:    29 matrix size:    1118959
  Task:    30 matrix size:    1123829
  Task:    31 matrix size:     340256
  Task:    32 matrix size:     106953
  Task:    33 matrix size:     569515
  Task:    34 matrix size:     342162
  Task:    35 matrix size:     577287
  Task:    36 matrix size:    1112651
  Task:    37 matrix size:    1072025
  Task:    38 matrix size:     267706
  Task:    39 matrix size:      92665
  Task:    40 matrix size:     390673
  Task:    41 matrix size:     266707
  Task:    42 matrix size:    1034510
  Task:    43 matrix size:     703791
  Task:    44 matrix size:     786397
  Task:    45 matrix size:     648534
  Task:    46 matrix size:     510473
  Task:    47 matrix size:     368414
  Task:    48 matrix size:     173621
  Task:    49 matrix size:    1017264
  Task:    50 matrix size:     674758
  Task:    51 matrix size:     501289
  Task:    52 matrix size:     641351
  Task:    53 matrix size:     399558
  Task:    54 matrix size:     285199
  Task:    55 matrix size:     144435
  Integrating Hamiltonian matrix: batch-based integration.
  Time summed over all CPUs for integration: real work      213.817 s, elapsed      422.854 s
  Time get_set_sparse_local_matrix_scalapack:     0.021254 s
  Start compute_balanced_batch_distribution
  Done load balancing, time needed:      0.010 s
  Integrating overlap matrix with loadbalancing
  Time summed over all CPUs for integration: real work       61.376 s, elapsed       71.365 s
  Time get_set_full_local_matrix_scalapack:     0.024520 s

  Updating Kohn-Sham eigenvalues and eigenvectors using ELSI and the ELPA eigensolver.
  Overlap matrix is not singular
  | Lowest and highest eigenvalues :  0.13E+02,  0.91E-04
  Finished singularity check of overlap matrix
  | Time :     0.123 s
  Finished Cholesky decomposition
  | Time :     0.027 s
  Finished transformation to standard eigenproblem
  | Time :     0.024 s
  Starting ELPA eigensolver
  Finished solving standard eigenproblem
  | Time :     0.133 s
  Finished back-transformation of eigenvectors
  | Time :     0.006 s

  Obtaining occupation numbers and chemical potential using ELSI.
  | Chemical potential (Fermi level):    -8.28182461 eV
  Writing Kohn-Sham eigenvalues.

  State    Occupation    Eigenvalue [Ha]    Eigenvalue [eV]
      1       2.00000         -10.174411         -276.85982
      2       2.00000         -10.173851         -276.84457
      3       2.00000         -10.173781         -276.84267
      4       2.00000         -10.173302         -276.82964
      5       2.00000         -10.173187         -276.82651
      6       2.00000         -10.172966         -276.82049
      7       2.00000         -10.172957         -276.82024
      8       2.00000         -10.172796         -276.81585
      9       2.00000         -10.172619         -276.81104
     10       2.00000         -10.172555         -276.80931
     11       2.00000         -10.172476         -276.80715
     12       2.00000         -10.172363         -276.80409
     13       2.00000         -10.172304         -276.80248
     14       2.00000         -10.172231         -276.80049
     15       2.00000         -10.172205         -276.79979
     16       2.00000         -10.172054         -276.79567
     17       2.00000         -10.171771         -276.78798
     18       2.00000         -10.171738         -276.78708
     19       2.00000         -10.171737         -276.78704
     20       2.00000         -10.171693         -276.78585
     21       2.00000         -10.171187         -276.77209
     22       2.00000         -10.171122         -276.77032
     23       2.00000         -10.170964         -276.76601
     24       2.00000         -10.170874         -276.76357
     25       2.00000         -10.170853         -276.76299
     26       2.00000         -10.170792         -276.76133
     27       2.00000         -10.165451         -276.61598
     28       2.00000         -10.164745         -276.59678
     29       2.00000         -10.164298         -276.58463
     30       2.00000         -10.164245         -276.58319
     31       2.00000         -10.164013         -276.57688
     32       2.00000         -10.162923         -276.54722
     33       2.00000         -10.162769         -276.54302
     34       2.00000         -10.159764         -276.46125
     35       2.00000         -10.159318         -276.44912
     36       2.00000         -10.158778         -276.43442
     37       2.00000          -1.014183          -27.59732
     38       2.00000          -1.001581          -27.25439
     39       2.00000          -1.000320          -27.22009
     40       2.00000          -0.996665          -27.12064
     41       2.00000          -0.996059          -27.10413
     42       2.00000          -0.981071          -26.69630
     43       2.00000          -0.927294          -25.23296
     44       2.00000          -0.923270          -25.12347
     45       2.00000          -0.896201          -24.38686
     46       2.00000          -0.892480          -24.28561
     47       2.00000          -0.887323          -24.14529
     48       2.00000          -0.887245          -24.14316
     49       2.00000          -0.886762          -24.13001
     50       2.00000          -0.886465          -24.12193
     51       2.00000          -0.885973          -24.10855
     52       2.00000          -0.885099          -24.08476
     53       2.00000          -0.855332          -23.27477
     54       2.00000          -0.849549          -23.11739
     55       2.00000          -0.784263          -21.34088
     56       2.00000          -0.776845          -21.13902
     57       2.00000          -0.756771          -20.59279
     58       2.00000          -0.750970          -20.43494
     59       2.00000          -0.749573          -20.39691
     60       2.00000          -0.748817          -20.37635
     61       2.00000          -0.747224          -20.33299
     62       2.00000          -0.747099          -20.32960
     63       2.00000          -0.743535          -20.23261
     64       2.00000          -0.738380          -20.09233
     65       2.00000          -0.714111          -19.43195
     66       2.00000          -0.712667          -19.39265
     67       2.00000          -0.677752          -18.44258
     68       2.00000          -0.662029          -18.01471
     69       2.00000          -0.656367          -17.86064
     70       2.00000          -0.649894          -17.68453
     71       2.00000          -0.648158          -17.63728
     72       2.00000          -0.643007          -17.49710
     73       2.00000          -0.633160          -17.22915
     74       2.00000          -0.630377          -17.15342
     75       2.00000          -0.629077          -17.11806
     76       2.00000          -0.627019          -17.06207
     77       2.00000          -0.618491          -16.82999
     78       2.00000          -0.612719          -16.67292
     79       2.00000          -0.598548          -16.28732
     80       2.00000          -0.586367          -15.95587
     81       2.00000          -0.581283          -15.81751
     82       2.00000          -0.577962          -15.72714
     83       2.00000          -0.575215          -15.65240
     84       2.00000          -0.572199          -15.57032
     85       2.00000          -0.571002          -15.53775
     86       2.00000          -0.570466          -15.52317
     87       2.00000          -0.566650          -15.41933
     88       2.00000          -0.565870          -15.39809
     89       2.00000          -0.565619          -15.39126
     90       2.00000          -0.565188          -15.37953
     91       2.00000          -0.564698          -15.36621
     92       2.00000          -0.548048          -14.91313
     93       2.00000          -0.532264          -14.48365
     94       2.00000          -0.513837          -13.98222
     95       2.00000          -0.513194          -13.96473
     96       2.00000          -0.510339          -13.88702
     97       2.00000          -0.509872          -13.87432
     98       2.00000          -0.508260          -13.83045
     99       2.00000          -0.506722          -13.78862
    100       2.00000          -0.503752          -13.70779
    101       2.00000          -0.502704          -13.67928
    102       2.00000          -0.498602          -13.56766
    103       2.00000          -0.497332          -13.53310
    104       2.00000          -0.496679          -13.51533
    105       2.00000          -0.495870          -13.49331
    106       2.00000          -0.493398          -13.42603
    107       2.00000          -0.491377          -13.37104
    108       2.00000          -0.487303          -13.26020
    109       2.00000          -0.483441          -13.15509
    110       2.00000          -0.421946          -11.48173
    111       2.00000          -0.418530          -11.38879
    112       2.00000          -0.412738          -11.23117
    113       2.00000          -0.412336          -11.22022
    114       2.00000          -0.404724          -11.01310
    115       2.00000          -0.404465          -11.00604
    116       2.00000          -0.403528          -10.98055
    117       2.00000          -0.402560          -10.95421
    118       2.00000          -0.401655          -10.92958
    119       2.00000          -0.392361          -10.67669
    120       2.00000          -0.382202          -10.40026
    121       2.00000          -0.372441          -10.13464
    122       0.00000          -0.240667           -6.54888
    123       0.00000          -0.229941           -6.25701
    124       0.00000          -0.215379           -5.86075
    125       0.00000          -0.213716           -5.81552
    126       0.00000          -0.210977           -5.74099
    127       0.00000          -0.210176           -5.71919
    128       0.00000          -0.210056           -5.71593
    129       0.00000          -0.206851           -5.62869
    130       0.00000          -0.203133           -5.52752
    131       0.00000          -0.202371           -5.50678
    132       0.00000          -0.192715           -5.24405
    133       0.00000          -0.184172           -5.01157
    134       0.00000          -0.092131           -2.50701
    135       0.00000          -0.086448           -2.35238
    136       0.00000          -0.075558           -2.05604
    137       0.00000          -0.074742           -2.03383
    138       0.00000          -0.072629           -1.97634
    139       0.00000          -0.070958           -1.93086
    140       0.00000          -0.069493           -1.89101
    141       0.00000          -0.066430           -1.80766
    142       0.00000          -0.060746           -1.65298
    143       0.00000          -0.060160           -1.63704
    144       0.00000          -0.057220           -1.55703
    145       0.00000          -0.052569           -1.43047
    146       0.00000          -0.050279           -1.36815
    147       0.00000          -0.045105           -1.22737
    148       0.00000          -0.038276           -1.04153
    149       0.00000          -0.036346           -0.98902
    150       0.00000          -0.030467           -0.82905
    151       0.00000          -0.027017           -0.73517
    152       0.00000          -0.023116           -0.62902
    153       0.00000          -0.022962           -0.62484
    154       0.00000          -0.016671           -0.45363
    155       0.00000          -0.015497           -0.42169
    156       0.00000          -0.011515           -0.31335
    157       0.00000          -0.011316           -0.30793
    158       0.00000          -0.007134           -0.19412
    159       0.00000          -0.005596           -0.15227
    160       0.00000           0.000428            0.01164
    161       0.00000           0.001728            0.04702
    162       0.00000           0.006817            0.18550
    163       0.00000           0.007544            0.20529
    164       0.00000           0.008897            0.24209
    165       0.00000           0.014466            0.39365
    166       0.00000           0.015802            0.43000
    167       0.00000           0.019929            0.54229
    168       0.00000           0.021582            0.58728
    169       0.00000           0.025102            0.68306
    170       0.00000           0.027511            0.74862
    171       0.00000           0.033843            0.92093
    172       0.00000           0.039432            1.07301
    173       0.00000           0.045358            1.23426
    174       0.00000           0.046264            1.25891
    175       0.00000           0.049027            1.33409
    176       0.00000           0.051221            1.39378
    177       0.00000           0.053917            1.46714
    178       0.00000           0.056172            1.52852
    179       0.00000           0.057430            1.56275
    180       0.00000           0.062563            1.70244
    181       0.00000           0.064630            1.75867
    182       0.00000           0.065286            1.77653
    183       0.00000           0.066189            1.80109
    184       0.00000           0.068767            1.87124
    185       0.00000           0.073048            1.98773
    186       0.00000           0.074731            2.03355
    187       0.00000           0.076890            2.09229
    188       0.00000           0.078089            2.12492
    189       0.00000           0.081463            2.21672
    190       0.00000           0.081771            2.22509
    191       0.00000           0.084078            2.28787
    192       0.00000           0.084646            2.30333
    193       0.00000           0.085968            2.33931
    194       0.00000           0.087704            2.38654
    195       0.00000           0.089011            2.42212
    196       0.00000           0.093312            2.53916
    197       0.00000           0.096770            2.63323
    198       0.00000           0.099921            2.71899
    199       0.00000           0.101595            2.76455
    200       0.00000           0.102456            2.78796
    201       0.00000           0.104542            2.84474
    202       0.00000           0.107884            2.93567
    203       0.00000           0.108349            2.94832
    204       0.00000           0.110015            2.99366
    205       0.00000           0.113154            3.07907
    206       0.00000           0.116698            3.17553
    207       0.00000           0.118590            3.22699
    208       0.00000           0.120323            3.27416
    209       0.00000           0.122530            3.33421
    210       0.00000           0.122847            3.34285
    211       0.00000           0.123772            3.36801
    212       0.00000           0.126517            3.44271
    213       0.00000           0.128919            3.50806
    214       0.00000           0.130856            3.56077
    215       0.00000           0.134563            3.66164
    216       0.00000           0.135275            3.68101
    217       0.00000           0.136698            3.71975
    218       0.00000           0.139046            3.78363
    219       0.00000           0.139339            3.79160
    220       0.00000           0.141466            3.84949
    221       0.00000           0.143084            3.89352
    222       0.00000           0.144195            3.92373
    223       0.00000           0.146513            3.98683
    224       0.00000           0.149807            4.07647
    225       0.00000           0.150323            4.09050
    226       0.00000           0.152393            4.14684
    227       0.00000           0.153923            4.18846
    228       0.00000           0.157941            4.29780
    229       0.00000           0.161401            4.39193
    230       0.00000           0.162432            4.42001
    231       0.00000           0.164789            4.48414
    232       0.00000           0.165685            4.50852
    233       0.00000           0.170554            4.64101
    234       0.00000           0.174585            4.75070
    235       0.00000           0.177593            4.83255
    236       0.00000           0.179551            4.88582
    237       0.00000           0.182700            4.97151
    238       0.00000           0.184321            5.01562
    239       0.00000           0.187046            5.08977
    240       0.00000           0.190381            5.18053
    241       0.00000           0.195650            5.32391
    242       0.00000           0.196721            5.35305
    243       0.00000           0.197371            5.37074
    244       0.00000           0.198468            5.40060
    245       0.00000           0.201618            5.48631
    246       0.00000           0.202143            5.50058
    247       0.00000           0.204052            5.55255
    248       0.00000           0.206684            5.62416
    249       0.00000           0.212413            5.78005
    250       0.00000           0.212813            5.79094
    251       0.00000           0.217388            5.91544
    252       0.00000           0.219237            5.96574
    253       0.00000           0.220917            6.01145
    254       0.00000           0.223054            6.06961
    255       0.00000           0.224699            6.11437
    256       0.00000           0.228411            6.21537
    257       0.00000           0.228591            6.22027
    258       0.00000           0.231131            6.28938
    259       0.00000           0.237534            6.46363
    260       0.00000           0.238513            6.49027
    261       0.00000           0.240171            6.53537
    262       0.00000           0.243707            6.63160
    263       0.00000           0.246141            6.69783
    264       0.00000           0.248934            6.77383
    265       0.00000           0.250945            6.82856
    266       0.00000           0.253418            6.89586
    267       0.00000           0.265233            7.21735
    268       0.00000           0.266644            7.25575

  Highest occupied state (VBM) at    -10.13463812 eV
  | Occupation number:      2.00000000

  Lowest unoccupied state (CBM) at    -6.54888299 eV
  | Occupation number:      0.00000000

  Overall HOMO-LUMO gap:      3.58575512 eV.
  Calculating total energy contributions from superposition of free atom densities.

  Total energy components:
  | Sum of eigenvalues            :        -841.59962692 Ha      -22901.09104318 eV
  | XC energy correction          :        -199.70539903 Ha       -5434.26039964 eV
  | XC potential correction       :         256.51965776 Ha        6980.25503901 eV
  | Free-atom electrostatic energy:        -603.90513002 Ha      -16433.09469458 eV
  | Hartree energy correction     :           0.00000000 Ha           0.00000000 eV
  | Entropy correction            :           0.00000000 Ha           0.00000000 eV
  | ---------------------------
  | Total energy                  :       -1388.69049821 Ha      -37788.19109839 eV
  | Total energy, T -> 0          :       -1388.69049821 Ha      -37788.19109839 eV  <-- do not rely on this value for anything but (periodic) metals
  | Electronic free energy        :       -1388.69049821 Ha      -37788.19109839 eV

  Derived energy quantities:
  | Kinetic energy                :        1374.50330224 Ha       37402.13785384 eV
  | Electrostatic energy          :       -2563.48840143 Ha      -69756.06855258 eV
  | Energy correction for multipole
  | error in Hartree potential    :           0.00000000 Ha           0.00000000 eV
  | Sum of eigenvalues per atom                           :        -369.37243618 eV
  | Total energy (T->0) per atom                          :        -609.48695320 eV  <-- do not rely on this value for anything but (periodic) metals
  | Electronic free energy per atom                       :        -609.48695320 eV
  Initialize hartree_potential_storage
  Max. number of atoms included in rho_multipole:           62

  End scf initialization - timings             :  max(cpu_time)    wall_clock(cpu1)
  | Time for scf. initialization               :       11.640 s          11.742 s
  | Boundary condition initialization          :        0.001 s           0.008 s
  | Integration                                :        8.904 s           8.914 s
  | Solution of K.-S. eqns.                    :        0.334 s           0.351 s
  | Grid partitioning                          :        0.927 s           0.938 s
  | Preloading free-atom quantities on grid    :        0.013 s           0.016 s
  | Free-atom superposition energy             :        0.103 s           0.103 s
  | Total energy evaluation                    :        0.001 s           0.003 s

  Partial memory accounting:
  | Current value for overall tracked memory usage on task 0  :           5.795 MB
  | Peak value for overall tracked memory usage on task 0     :          33.862 MB after allocating zora_vector2
  | Largest tracked array allocation on task 0 so far         :          10.470 MB  when allocating hamiltonian_shell
  Note:  These values currently only include a subset of arrays which are explicitly tracked.
  The "true" memory usage will be greater.
------------------------------------------------------------

------------------------------------------------------------
          Begin self-consistency iteration #    1

  Date     :  20210620, Time     :  173952.664
------------------------------------------------------------
  Evaluating new KS density.
  Integration grid: deviation in total charge (<rho> - N_e) =   1.136868E-13
  Pulay mixing of updated and previous charge densities.

  Evaluating partitioned Hartree potential by multipole expansion.
  | Analytical far-field extrapolation by fixed multipoles:
  | Hartree multipole sum: apparent total charge =  -0.172028E-03
  Summing up the Hartree potential with load balancing.
  Time summed over all CPUs for potential: real work       39.091 s, elapsed       74.209 s
  | RMS charge density error from multipole expansion :   0.140710E-01

  Start compute_balanced_batch_distribution
  Done load balancing, time needed:      0.009 s
  Integrating Hamiltonian matrix: batch-based integration with load balancing
  Time summed over all CPUs for integration: real work      236.579 s, elapsed      264.965 s
  Time get_set_full_local_matrix_scalapack:     0.025227 s
  Start compute_balanced_batch_distribution
  Done load balancing, time needed:      0.009 s

  Updating Kohn-Sham eigenvalues and eigenvectors using ELSI and the ELPA eigensolver.
  Finished transformation to standard eigenproblem
  | Time :     0.027 s
  Starting ELPA eigensolver
  Finished solving standard eigenproblem
  | Time :     0.139 s
  Finished back-transformation of eigenvectors
  | Time :     0.008 s

  Obtaining occupation numbers and chemical potential using ELSI.
  | Chemical potential (Fermi level):    -3.81029956 eV
  Writing Kohn-Sham eigenvalues.

  State    Occupation    Eigenvalue [Ha]    Eigenvalue [eV]
      1       2.00000          -9.991853         -271.89216
      2       2.00000          -9.990545         -271.85655
      3       2.00000          -9.989756         -271.83510
      4       2.00000          -9.983043         -271.65243
      5       2.00000          -9.983030         -271.65207
      6       2.00000          -9.969691         -271.28910
      7       2.00000          -9.969354         -271.27992
      8       2.00000          -9.968637         -271.26041
      9       2.00000          -9.967459         -271.22835
     10       2.00000          -9.965234         -271.16781
     11       2.00000          -9.950335         -270.76240
     12       2.00000          -9.943011         -270.56309
     13       2.00000          -9.942687         -270.55429
     14       2.00000          -9.939551         -270.46894
     15       2.00000          -9.939472         -270.46678
     16       2.00000          -9.938855         -270.45000
     17       2.00000          -9.937907         -270.42421
     18       2.00000          -9.937607         -270.41603
     19       2.00000          -9.937558         -270.41472
     20       2.00000          -9.937399         -270.41040
     21       2.00000          -9.937146         -270.40350
     22       2.00000          -9.937126         -270.40296
     23       2.00000          -9.936735         -270.39231
     24       2.00000          -9.936558         -270.38749
     25       2.00000          -9.936548         -270.38723
     26       2.00000          -9.936179         -270.37719
     27       2.00000          -9.936126         -270.37576
     28       2.00000          -9.935143         -270.34900
     29       2.00000          -9.935126         -270.34853
     30       2.00000          -9.934812         -270.34000
     31       2.00000          -9.934678         -270.33635
     32       2.00000          -9.934521         -270.33207
     33       2.00000          -9.934249         -270.32468
     34       2.00000          -9.933660         -270.30863
     35       2.00000          -9.933637         -270.30801
     36       2.00000          -9.933215         -270.29653
     37       2.00000          -0.870933          -23.69928
     38       2.00000          -0.840035          -22.85851
     39       2.00000          -0.836553          -22.76375
     40       2.00000          -0.829438          -22.57015
     41       2.00000          -0.826734          -22.49658
     42       2.00000          -0.820089          -22.31577
     43       2.00000          -0.781239          -21.25860
     44       2.00000          -0.776549          -21.13096
     45       2.00000          -0.742344          -20.20022
     46       2.00000          -0.735538          -20.01502
     47       2.00000          -0.729652          -19.85484
     48       2.00000          -0.729215          -19.84296
     49       2.00000          -0.728609          -19.82646
     50       2.00000          -0.727101          -19.78543
     51       2.00000          -0.725446          -19.74038
     52       2.00000          -0.725135          -19.73192
     53       2.00000          -0.701903          -19.09975
     54       2.00000          -0.696481          -18.95220
     55       2.00000          -0.638353          -17.37046
     56       2.00000          -0.634089          -17.25443
     57       2.00000          -0.608621          -16.56142
     58       2.00000          -0.603831          -16.43107
     59       2.00000          -0.603121          -16.41175
     60       2.00000          -0.601602          -16.37043
     61       2.00000          -0.599106          -16.30252
     62       2.00000          -0.598970          -16.29880
     63       2.00000          -0.594696          -16.18251
     64       2.00000          -0.587388          -15.98364
     65       2.00000          -0.570076          -15.51255
     66       2.00000          -0.565800          -15.39620
     67       2.00000          -0.540341          -14.70342
     68       2.00000          -0.526970          -14.33958
     69       2.00000          -0.521413          -14.18836
     70       2.00000          -0.515632          -14.03105
     71       2.00000          -0.507916          -13.82110
     72       2.00000          -0.500309          -13.61409
     73       2.00000          -0.487455          -13.26431
     74       2.00000          -0.475450          -12.93766
     75       2.00000          -0.467563          -12.72303
     76       2.00000          -0.465472          -12.66615
     77       2.00000          -0.464220          -12.63206
     78       2.00000          -0.460817          -12.53947
     79       2.00000          -0.460457          -12.52966
     80       2.00000          -0.458249          -12.46959
     81       2.00000          -0.456566          -12.42378
     82       2.00000          -0.450234          -12.25149
     83       2.00000          -0.447546          -12.17835
     84       2.00000          -0.436265          -11.87137
     85       2.00000          -0.429303          -11.68192
     86       2.00000          -0.428723          -11.66616
     87       2.00000          -0.428592          -11.66257
     88       2.00000          -0.427486          -11.63248
     89       2.00000          -0.426623          -11.60900
     90       2.00000          -0.424539          -11.55229
     91       2.00000          -0.424079          -11.53977
     92       2.00000          -0.404433          -11.00519
     93       2.00000          -0.396533          -10.79022
     94       2.00000          -0.385910          -10.50116
     95       2.00000          -0.377099          -10.26138
     96       2.00000          -0.375126          -10.20771
     97       2.00000          -0.370843          -10.09115
     98       2.00000          -0.369686          -10.05966
     99       2.00000          -0.366394           -9.97009
    100       2.00000          -0.363791           -9.89927
    101       2.00000          -0.362395           -9.86126
    102       2.00000          -0.360595           -9.81230
    103       2.00000          -0.360125           -9.79950
    104       2.00000          -0.359110           -9.77187
    105       2.00000          -0.356784           -9.70859
    106       2.00000          -0.355519           -9.67415
    107       2.00000          -0.349657           -9.51465
    108       2.00000          -0.345922           -9.41301
    109       2.00000          -0.344176           -9.36550
    110       2.00000          -0.297402           -8.09273
    111       2.00000          -0.291668           -7.93669
    112       2.00000          -0.278297           -7.57284
    113       2.00000          -0.275805           -7.50503
    114       2.00000          -0.269639           -7.33725
    115       2.00000          -0.269027           -7.32060
    116       2.00000          -0.265623           -7.22797
    117       2.00000          -0.264911           -7.20858
    118       2.00000          -0.264411           -7.19498
    119       2.00000          -0.257622           -7.01026
    120       2.00000          -0.248359           -6.75819
    121       2.00000          -0.243272           -6.61977
    122       0.00000          -0.117288           -3.19157
    123       0.00000          -0.106379           -2.89473
    124       0.00000          -0.084566           -2.30117
    125       0.00000          -0.082475           -2.24425
    126       0.00000          -0.080378           -2.18721
    127       0.00000          -0.079295           -2.15773
    128       0.00000          -0.077904           -2.11988
    129       0.00000          -0.075657           -2.05872
    130       0.00000          -0.070053           -1.90623
    131       0.00000          -0.068343           -1.85970
    132       0.00000          -0.067230           -1.82943
    133       0.00000          -0.058279           -1.58585
    134       0.00000          -0.032483           -0.88390
    135       0.00000          -0.023355           -0.63551
    136       0.00000          -0.021037           -0.57245
    137       0.00000          -0.012943           -0.35219
    138       0.00000          -0.010813           -0.29424
    139       0.00000          -0.009567           -0.26033
    140       0.00000          -0.004004           -0.10897
    141       0.00000           0.000497            0.01351
    142       0.00000           0.000997            0.02712
    143       0.00000           0.006819            0.18557
    144       0.00000           0.012357            0.33624
    145       0.00000           0.013748            0.37410
    146       0.00000           0.015386            0.41868
[...]
     98       2.00000          -0.327500           -8.91172
     99       2.00000          -0.319571           -8.69596
    100       2.00000          -0.311077           -8.46485
    101       2.00000          -0.304603           -8.28867
    102       2.00000          -0.302893           -8.24214
    103       2.00000          -0.301156           -8.19487
    104       2.00000          -0.300836           -8.18616
    105       2.00000          -0.297700           -8.10083
    106       2.00000          -0.297478           -8.09480
    107       2.00000          -0.294558           -8.01532
    108       2.00000          -0.286921           -7.80752
    109       2.00000          -0.285009           -7.75548
    110       2.00000          -0.252115           -6.86039
    111       2.00000          -0.246736           -6.71403
    112       2.00000          -0.238756           -6.49687
    113       2.00000          -0.236558           -6.43707
    114       2.00000          -0.231649           -6.30348
    115       2.00000          -0.231416           -6.29716
    116       2.00000          -0.228404           -6.21519
    117       2.00000          -0.227621           -6.19388
    118       2.00000          -0.226015           -6.15019
    119       2.00000          -0.216906           -5.90232
    120       2.00000          -0.207033           -5.63366
    121       2.00000          -0.199283           -5.42276
    122       0.00000          -0.071937           -1.95751
    123       0.00000          -0.061661           -1.67789
    124       0.00000          -0.045732           -1.24443
    125       0.00000          -0.043912           -1.19490
    126       0.00000          -0.041829           -1.13824
    127       0.00000          -0.039859           -1.08461
    128       0.00000          -0.039054           -1.06272
    129       0.00000          -0.035855           -0.97566
    130       0.00000          -0.031057           -0.84511
    131       0.00000          -0.029061           -0.79080
    132       0.00000          -0.024191           -0.65826
    133       0.00000          -0.013189           -0.35890
    134       0.00000          -0.011547           -0.31421
    135       0.00000          -0.002755           -0.07497
    136       0.00000          -0.000227           -0.00617
    137       0.00000           0.007505            0.20422
    138       0.00000           0.009656            0.26276
    139       0.00000           0.012420            0.33797
    140       0.00000           0.015791            0.42968
    141       0.00000           0.019703            0.53616
    142       0.00000           0.020369            0.55427
    143       0.00000           0.026773            0.72854
    144       0.00000           0.032813            0.89289
    145       0.00000           0.034229            0.93142
    146       0.00000           0.035579            0.96816
    147       0.00000           0.040569            1.10395
    148       0.00000           0.046312            1.26021
    149       0.00000           0.046963            1.27793
    150       0.00000           0.052018            1.41548
    151       0.00000           0.053099            1.44489
    152       0.00000           0.057650            1.56873
    153       0.00000           0.060429            1.64435
    154       0.00000           0.073051            1.98783
    155       0.00000           0.076165            2.07256
    156       0.00000           0.077427            2.10689
    157       0.00000           0.078880            2.14643
    158       0.00000           0.088250            2.40141
    159       0.00000           0.091220            2.48223
    160       0.00000           0.092754            2.52396
    161       0.00000           0.094350            2.56739
    162       0.00000           0.100030            2.72195
    163       0.00000           0.104434            2.84179
    164       0.00000           0.105902            2.88174
    165       0.00000           0.107977            2.93820
    166       0.00000           0.109670            2.98427
    167       0.00000           0.110668            3.01144
    168       0.00000           0.115183            3.13428
    169       0.00000           0.118094            3.21349
    170       0.00000           0.118808            3.23293
    171       0.00000           0.126171            3.43329
    172       0.00000           0.132248            3.59866
    173       0.00000           0.140706            3.82880
    174       0.00000           0.141427            3.84843
    175       0.00000           0.147581            4.01589
    176       0.00000           0.149458            4.06695
    177       0.00000           0.153509            4.17720
    178       0.00000           0.159357            4.33632
    179       0.00000           0.159766            4.34745
    180       0.00000           0.163741            4.45561
    181       0.00000           0.165200            4.49533
    182       0.00000           0.167181            4.54922
    183       0.00000           0.170166            4.63046
    184       0.00000           0.172756            4.70092
    185       0.00000           0.173388            4.71814
    186       0.00000           0.176354            4.79883
    187       0.00000           0.179725            4.89057
    188       0.00000           0.180087            4.90043
    189       0.00000           0.182663            4.97052
    190       0.00000           0.184803            5.02874
    191       0.00000           0.185860            5.05752
    192       0.00000           0.189730            5.16281
    193       0.00000           0.190208            5.17582
    194       0.00000           0.194260            5.28608
    195       0.00000           0.197248            5.36739
    196       0.00000           0.200550            5.45726
    197       0.00000           0.202307            5.50504
    198       0.00000           0.204535            5.56567
    199       0.00000           0.206909            5.63028
    200       0.00000           0.212463            5.78142
    201       0.00000           0.214551            5.83822
    202       0.00000           0.215609            5.86703
    203       0.00000           0.215852            5.87363
    204       0.00000           0.218104            5.93490
    205       0.00000           0.218749            5.95247
    206       0.00000           0.221064            6.01545
    207       0.00000           0.222308            6.04930
    208       0.00000           0.224020            6.09589
    209       0.00000           0.224820            6.11766
    210       0.00000           0.225312            6.13104
    211       0.00000           0.227043            6.17815
    212       0.00000           0.228774            6.22526
    213       0.00000           0.233901            6.36477
    214       0.00000           0.234593            6.38359
    215       0.00000           0.239454            6.51588
    216       0.00000           0.241115            6.56108
    217       0.00000           0.243863            6.63584
    218       0.00000           0.246567            6.70943
    219       0.00000           0.247699            6.74023
    220       0.00000           0.251044            6.83125
    221       0.00000           0.252304            6.86553
    222       0.00000           0.253273            6.89190
    223       0.00000           0.254046            6.91295
    224       0.00000           0.256153            6.97026
    225       0.00000           0.260637            7.09228
    226       0.00000           0.261305            7.11048
    227       0.00000           0.263370            7.16665
    228       0.00000           0.267835            7.28817
    229       0.00000           0.271781            7.39554
    230       0.00000           0.273167            7.43326
    231       0.00000           0.276848            7.53341
    232       0.00000           0.278763            7.58554
    233       0.00000           0.279942            7.61762
    234       0.00000           0.282335            7.68274
    235       0.00000           0.284284            7.73577
    236       0.00000           0.286425            7.79401
    237       0.00000           0.288683            7.85546
    238       0.00000           0.292170            7.95035
    239       0.00000           0.293709            7.99224
    240       0.00000           0.296484            8.06774
    241       0.00000           0.297676            8.10017
    242       0.00000           0.298912            8.13380
    243       0.00000           0.303231            8.25133
    244       0.00000           0.305972            8.32592
    245       0.00000           0.307526            8.36820
    246       0.00000           0.308618            8.39792
    247       0.00000           0.312496            8.50346
    248       0.00000           0.313557            8.53231
    249       0.00000           0.315709            8.59087
    250       0.00000           0.322079            8.76420
    251       0.00000           0.324053            8.81793
    252       0.00000           0.326892            8.89517
    253       0.00000           0.331877            9.03085
    254       0.00000           0.333161            9.06577
    255       0.00000           0.340453            9.26420
    256       0.00000           0.341353            9.28870
    257       0.00000           0.346145            9.41908
    258       0.00000           0.349962            9.52296
    259       0.00000           0.350743            9.54421
    260       0.00000           0.356125            9.69065
    261       0.00000           0.358842            9.76460
    262       0.00000           0.365016            9.93259
    263       0.00000           0.365988            9.95904
    264       0.00000           0.371939           10.12097
    265       0.00000           0.372014           10.12303
    266       0.00000           0.373435           10.16169
    267       0.00000           0.376107           10.23440
    268       0.00000           0.380143           10.34421

  Highest occupied state (VBM) at     -5.42275830 eV
  | Occupation number:      2.00000000

  Lowest unoccupied state (CBM) at    -1.95751319 eV
  | Occupation number:      0.00000000

  Overall HOMO-LUMO gap:      3.46524512 eV.

  Total energy components:
  | Sum of eigenvalues            :        -788.38346427 Ha      -21453.00557972 eV
  | XC energy correction          :        -203.69331627 Ha       -5542.77714920 eV
  | XC potential correction       :         261.66839692 Ha        7120.35936003 eV
  | Free-atom electrostatic energy:        -603.90513002 Ha      -16433.09469458 eV
  | Hartree energy correction     :         -52.56237167 Ha       -1430.29490572 eV
  | Entropy correction            :           0.00000000 Ha           0.00000000 eV
  | ---------------------------
  | Total energy                  :       -1386.87588532 Ha      -37738.81296919 eV
  | Total energy, T -> 0          :       -1386.87588532 Ha      -37738.81296919 eV  <-- do not rely on this value for anything but (periodic) metals
  | Electronic free energy        :       -1386.87588532 Ha      -37738.81296919 eV

  Derived energy quantities:
  | Kinetic energy                :        1383.29719838 Ha       37641.43194278 eV
  | Electrostatic energy          :       -2566.47976742 Ha      -69837.46776277 eV
  | Energy correction for multipole
  | error in Hartree potential    :          -0.15885782 Ha          -4.32274113 eV
  | Sum of eigenvalues per atom                           :        -346.01621903 eV
  | Total energy (T->0) per atom                          :        -608.69053176 eV  <-- do not rely on this value for anything but (periodic) metals
  | Electronic free energy per atom                       :        -608.69053176 eV
  End evaluation of scaled ZORA corrections.
  | Time for scaled ZORA corrections           :        8.428 s           8.440 s
------------------------------------------------------------

  Energy and forces in a compact form:
  | Total energy uncorrected      :         -0.377388129691947E+05 eV
  | Total energy corrected        :         -0.377388129691947E+05 eV  <-- do not rely on this value for anything but (periodic) metals
  | Electronic free energy        :         -0.377388129691947E+05 eV

  ------------------------------------ 
  Start decomposition of the XC Energy 
  ------------------------------------ 
  X and C from original XC functional choice 
  Hartree-Fock Energy :          0.000000000 Ha              0.000000000 eV
  X Energy            :       -195.630040533 Ha          -5323.364252684 eV
  C Energy            :         -8.063275741 Ha           -219.412896516 eV
  Total XC Energy     :       -203.693316274 Ha          -5542.777149200 eV
  ------------------------------------ 
  LDA X and C from self-consistent density 
  X Energy LDA        :       -177.145368822 Ha          -4820.370743409 eV
  C Energy LDA        :        -15.557649511 Ha           -423.345182753 eV
  ------------------------------------ 
  End decomposition of the XC Energy 
  ------------------------------------ 

------------------------------------------------------------

------------------------------------------------------------------------------
  Final output of selected total energy values:

  The following output summarizes some interesting total energy values
  at the end of a run (AFTER all relaxation, molecular dynamics, etc.).

  | Total energy of the DFT / Hartree-Fock s.c.f. calculation      :         -37738.812969195 eV
  | Final zero-broadening corrected energy (caution - metals only) :         -37738.812969195 eV
  | For reference only, the value of 1 Hartree used in FHI-aims is :             27.211384500 eV

  Before relying on these values, please be sure to understand exactly which
  total energy value is referred to by a given number. Different objects may
  all carry the same name 'total energy'. Definitions:

  Total energy of the DFT / Hartree-Fock s.c.f. calculation:
  | Note that this energy does not include ANY quantities calculated after the
  | s.c.f. cycle, in particular not ANY RPA, MP2, etc. many-body perturbation terms.
  | Scalar relativistic effects have been included in the 'scaled ZORA' approximation.

  Final zero-broadening corrected energy:
  | For metallic systems only, a broadening of the occupation numbers at the Fermi
  | level can be extrapolated back to zero broadening by an electron-gas inspired
  | formula. For all systems that are not real metals, this value can be
  | meaningless and should be avoided.

------------------------------------------------------------------------------
  Methods described in the following list of references were used in this FHI-aims run.
  If you publish the results, please make sure to cite these reference if they apply.
  FHI-aims is an academic code, and for our developers (often, Ph.D. students
  and postdocs), scientific credit in the community is essential.
  Thank you for helping us!

  For any use of FHI-aims, please cite:

    Volker Blum, Ralf Gehrke, Felix Hanke, Paula Havu, Ville Havu,
    Xinguo Ren, Karsten Reuter, and Matthias Scheffler
    'Ab initio molecular simulations with numeric atom-centered orbitals'
    Computer Physics Communications 180, 2175-2196 (2009)
    http://dx.doi.org/10.1016/j.cpc.2009.06.022


  The scalable eigensolver library ELPA was used in your run.
  ELPA is essential especially for large systems on hundreds or thousands of CPUs.
  For ELPA, please cite:

    Andreas Marek, Volker Blum, Rainer Johanni, Ville Havu, Bruno Lang,
    Thomas Auckenthaler, Alexander Heinecke, Hans-Joachim Bungartz, and Hermann Lederer,
    'The ELPA Library - Scalable Parallel Eigenvalue Solutions
    for Electronic Structure Theory and Computational Science'
    The Journal of Physics: Condensed Matter 26, 213201 (2014).
    http://dx.doi.org/10.1088/0953-8984/26/21/213201


  The ELSI infrastructure was used in your run to solve the Kohn-Sham electronic structure.
  Please check out http://elsi-interchange.org to learn more.
  If scalability is important for your project, please acknowledge ELSI by citing:

    V. W-z. Yu, F. Corsetti, A. Garcia, W. P. Huhn, M. Jacquelin, W. Jia,
    B. Lange, L. Lin, J. Lu, W. Mi, A. Seifitokaldani, A. Vazquez-Mayagoitia,
    C. Yang, H. Yang, and V. Blum
    'ELSI: A unified software interface for Kohn-Sham electronic structure solvers'
    Computer Physics Communications 222, 267-285 (2018).
    http://dx.doi.org/10.1016/j.cpc.2017.09.007


  For the real-space grid partitioning and parallelization used in this calculation, please cite:

    Ville Havu, Volker Blum, Paula Havu, and Matthias Scheffler,
    'Efficient O(N) integration for all-electron electronic structure calculation'
    'using numerically tabulated basis functions'
    Journal of Computational Physics 228, 8367-8379 (2009).
    http://dx.doi.org/10.1016/j.jcp.2009.08.008

  Of course, there are many other important community references, e.g., those cited in the
  above references. Our list is limited to references that describe implementations in the
  FHI-aims code. The reason is purely practical (length of this list) - please credit others as well.

------------------------------------------------------------
          Leaving FHI-aims.
          Date     :  20210620, Time     :  174218.470

          Computational steps:
          | Number of self-consistency cycles          :           17
          | Number of SCF (re)initializations          :            1

          Detailed time accounting                     :  max(cpu_time)    wall_clock(cpu1)
          | Total time                                 :      149.459 s         158.162 s
          | Preparation time                           :        0.197 s           0.180 s
          | Boundary condition initalization           :        0.001 s           0.008 s
          | Grid partitioning                          :        0.927 s           0.938 s
          | Preloading free-atom quantities on grid    :        0.013 s           0.016 s
          | Free-atom superposition energy             :        0.103 s           0.103 s
          | Total time for integrations                :       85.614 s          85.621 s
          | Total time for solution of K.-S. equations :        4.223 s           4.248 s
          | Total time for density update              :       33.683 s          33.628 s
          | Total time for mixing                      :        0.173 s           0.179 s
          | Total time for Hartree multipole update    :        0.212 s           0.219 s
          | Total time for Hartree multipole sum       :       14.141 s          14.145 s
          | Total time for total energy evaluation     :        0.005 s           0.028 s
          | Total time for scaled ZORA corrections     :        8.428 s           8.440 s

          Partial memory accounting:
          | Residual value for overall tracked memory usage across tasks :     0.000000 MB (should be 0.000000 MB)
          | Peak values for overall tracked memory usage (after allocating zora_vector2):
          |   Minimum:       35.147 MB (on task  1)
          |   Maximum:       46.175 MB (on task 37)
          |   Average:       39.720 MB
          | Largest tracked array allocation (hamiltonian_shell):
          |   Minimum:       10.470 MB (on task  1)
          |   Maximum:       10.470 MB (on task  1)
          |   Average:       10.470 MB
          Note:  These values currently only include a subset of arrays which are explicitly tracked.
          The "true" memory usage will be greater.

          Have a nice day.
------------------------------------------------------------
