  MPI-parallelism will be employed.
------------------------------------------------------------
          Invoking FHI-aims ...
          Version 180607
          Git rev. (modified): 6724847 Fix JSON memory corruption in scf_solver
          Compiled on 2018/06/27 at 16:00:31 on host coe.psc.edu.

          When using FHI-aims, please cite the following reference:

          Volker Blum, Ralf Gehrke, Felix Hanke, Paula Havu,
          Ville Havu, Xinguo Ren, Karsten Reuter, and Matthias Scheffler,
          'Ab Initio Molecular Simulations with Numeric Atom-Centered Orbitals',
          Computer Physics Communications 180, 2175-2196 (2009)

          For any questions about FHI-aims, please visit the aimsclub website
          with its forums and wiki. Contributions to both the forums and the
          wiki are warmly encouraged - they are for you, and everyone is welcome there.

------------------------------------------------------------



  Date     :  20210620, Time     :  174015.573
  Time zero on CPU 1             :   0.212411000000000E+00  s.
  Internal wall clock time zero  :           393442815.573  s.

  FHI-aims created a unique identifier for this run for later identification
  aims_uuid : B6FE0587-04E0-40D1-AEC6-AD231ACE20DE

  Using       56 parallel tasks.
  Task        0 on host d024 reporting.
  Task        1 on host d024 reporting.
  Task        2 on host d024 reporting.
  Task        3 on host d024 reporting.
  Task        4 on host d024 reporting.
  Task        5 on host d024 reporting.
  Task        6 on host d024 reporting.
  Task        7 on host d024 reporting.
  Task        8 on host d024 reporting.
  Task        9 on host d024 reporting.
  Task       10 on host d024 reporting.
  Task       11 on host d024 reporting.
  Task       12 on host d024 reporting.
  Task       13 on host d024 reporting.
  Task       14 on host d024 reporting.
  Task       15 on host d024 reporting.
  Task       16 on host d024 reporting.
  Task       17 on host d024 reporting.
  Task       18 on host d024 reporting.
  Task       19 on host d024 reporting.
  Task       20 on host d024 reporting.
  Task       21 on host d024 reporting.
  Task       22 on host d024 reporting.
  Task       23 on host d024 reporting.
  Task       24 on host d024 reporting.
  Task       25 on host d024 reporting.
  Task       26 on host d024 reporting.
  Task       27 on host d024 reporting.
  Task       28 on host d024 reporting.
  Task       29 on host d024 reporting.
  Task       30 on host d024 reporting.
  Task       31 on host d024 reporting.
  Task       32 on host d024 reporting.
  Task       33 on host d024 reporting.
  Task       34 on host d024 reporting.
  Task       35 on host d024 reporting.
  Task       36 on host d024 reporting.
  Task       37 on host d024 reporting.
  Task       38 on host d024 reporting.
  Task       39 on host d024 reporting.
  Task       40 on host d024 reporting.
  Task       41 on host d024 reporting.
  Task       42 on host d024 reporting.
  Task       43 on host d024 reporting.
  Task       44 on host d024 reporting.
  Task       45 on host d024 reporting.
  Task       46 on host d024 reporting.
  Task       47 on host d024 reporting.
  Task       48 on host d024 reporting.
  Task       49 on host d024 reporting.
  Task       50 on host d024 reporting.
  Task       51 on host d024 reporting.
  Task       52 on host d024 reporting.
  Task       53 on host d024 reporting.
  Task       54 on host d024 reporting.
  Task       55 on host d024 reporting.

  Performing system and environment tests:
  *** Environment variable OMP_NUM_THREADS is not set
  *** For performance reasons you might want to set it to 1
  | Stacksize not measured: no C compiler
  | Checking for scalapack...
  | Testing pdtran()...
  | All pdtran() tests passed.

  Obtaining array dimensions for all initial allocations:
  
  -----------------------------------------------------------------------
  Parsing control.in (first pass over file, find array dimensions only).
  The contents of control.in will be repeated verbatim below
  unless switched off by setting 'verbatim_writeout .false.' .
  in the first line of control.in .
  -----------------------------------------------------------------------
  
  #===============================================================================
  # FHI-aims file: ./Runs/es/control.in
  # Created using the Atomic Simulation Environment (ASE)
  # Mon Jan 13 16:04:38 2020
  #===============================================================================
  xc                                 pbe
  relativistic                       zora scalar 1e-12
  occupation_type                    gaussian 0.0001
  load_balancing                     .true.
  KS_method                          scalapack_fast
  mixer                              pulay
  n_max_pulay                        5
  charge_mix_param                   0.4
  sc_accuracy_etot                   1e-6
  sc_accuracy_eev                    1e-4
  sc_accuracy_rho                    1e-6
  sc_iter_limit                      100
  prodbas_threshold                  1e-4
  basis_threshold                    1e-5
  override_illconditioning           .true.
  use_logsbt                         .true.
  spin                               none
  charge                             0
  #===============================================================================
  
  ################################################################################
  #
  #  FHI-aims code project
  # Volker Blum, Fritz Haber Institute Berlin, 2009
  #
  #  Suggested "tight" defaults for H atom (to be pasted into control.in file)
  #
  ################################################################################
    species        H
  #     global species definitions
      nucleus             1
      mass                1.00794
  #
      l_hartree           6
  #
      cut_pot             4.0  2.0  1.0
      basis_dep_cutoff    1e-4
  #
      radial_base         24 7.0
      radial_multiplier   2
      angular_grids       specified
        division   0.1930   50
        division   0.3175  110
        division   0.4293  194
        division   0.5066  302
        division   0.5626  434
  #      division   0.5922  590
  #      division   0.6227  974
  #      division   0.6868 1202
  #      outer_grid  770
        outer_grid  434
  ################################################################################
  #
  #  Definition of "minimal" basis
  #
  ################################################################################
  #     valence basis states
      valence      1  s   1.
  #     ion occupancy
      ion_occ      1  s   0.5
  ################################################################################
  #
  #  Suggested additional basis functions. For production calculations,
  #  uncomment them one after another (the most important basis functions are
  #  listed first).
  #
  #  Basis constructed for dimers: 0.5 A, 0.7 A, 1.0 A, 1.5 A, 2.5 A
  #
  ################################################################################
  #  "First tier" - improvements: -1014.90 meV to -62.69 meV
       hydro 2 s 2.1
       hydro 2 p 3.5
  #  "Second tier" - improvements: -12.89 meV to -1.83 meV
       hydro 1 s 0.85
       hydro 2 p 3.7
       hydro 2 s 1.2
       hydro 3 d 7
  #  "Third tier" - improvements: -0.25 meV to -0.12 meV
  #     hydro 4 f 11.2
  #     hydro 3 p 4.8
  #     hydro 4 d 9
  #     hydro 3 s 3.2
  ################################################################################
  #
  # For methods that use the localized form of the "resolution of identity" for
  # the two-electron Coulomb operator (RI_method LVL), particularly Hartree-Fock and
  # hybrid density functional calculations, the highest accuracy can be obtained by
  # uncommenting the line beginning with "for_aux"  below, thus adding an extra g radial
  # function to the construction of the product basis set for the expansion.
  # See Ref. New J. Phys. 17, 093020 (2015) for more information, particularly Figs. 1 and 6.
  #
  ################################################################################
  #
  # for_aux hydro 5 g 6.0
  ################################################################################
  #
  #  FHI-aims code project
  # Volker Blum, Fritz Haber Institute Berlin, 2009
  #
  #  Suggested "tight" defaults for C atom (to be pasted into control.in file)
  #
  ################################################################################
    species        C
  #     global species definitions
      nucleus             6
      mass                12.0107
  #
      l_hartree           6
  #
      cut_pot             4.0  2.0  1.0
      basis_dep_cutoff    1e-4
  #
      radial_base         34 7.0
      radial_multiplier   2
      angular_grids specified
        division   0.2187   50
        division   0.4416  110
        division   0.6335  194
        division   0.7727  302
        division   0.8772  434
  #      division   0.9334  590
  #      division   0.9924  770
  #      division   1.0230  974
  #      division   1.5020 1202
  #     outer_grid  974
        outer_grid  434
  ################################################################################
  #
  #  Definition of "minimal" basis
  #
  ################################################################################
  #     valence basis states
      valence      2  s   2.
      valence      2  p   2.
  #     ion occupancy
      ion_occ      2  s   1.
      ion_occ      2  p   1.
  ################################################################################
  #
  #  Suggested additional basis functions. For production calculations,
  #  uncomment them one after another (the most important basis functions are
  #  listed first).
  #
  #  Constructed for dimers: 1.0 A, 1.25 A, 1.5 A, 2.0 A, 3.0 A
  #
  ################################################################################
  #  "First tier" - improvements: -1214.57 meV to -155.61 meV
       hydro 2 p 1.7
       hydro 3 d 6
       hydro 2 s 4.9
  #  "Second tier" - improvements: -67.75 meV to -5.23 meV
       hydro 4 f 9.8
       hydro 3 p 5.2
       hydro 3 s 4.3
       hydro 5 g 14.4
       hydro 3 d 6.2
  #  "Third tier" - improvements: -2.43 meV to -0.60 meV
  #     hydro 2 p 5.6
  #     hydro 2 s 1.4
  #     hydro 3 d 4.9
  #     hydro 4 f 11.2
  #  "Fourth tier" - improvements: -0.39 meV to -0.18 meV
  #     hydro 2 p 2.1
  #     hydro 5 g 16.4
  #     hydro 4 d 13.2
  #     hydro 3 s 13.6
  #     hydro 4 f 17.6
  #  Further basis functions - improvements: -0.08 meV and below
  #     hydro 3 s 2
  #     hydro 3 p 6
  #     hydro 4 d 20
  ################################################################################
  #
  # For methods that use the localized form of the "resolution of identity" for
  # the two-electron Coulomb operator (RI_method LVL), particularly Hartree-Fock and
  # hybrid density functional calculations, the highest accuracy can be obtained by
  # uncommenting the line beginning with "for_aux"  below, thus adding an extra g radial
  # function to the construction of the product basis set for the expansion.
  # See Ref. New J. Phys. 17, 093020 (2015) for more information, particularly Figs. 1 and 6.
  #
  ################################################################################
  #
  # for_aux hydro 5 g 6.0
  
  -----------------------------------------------------------------------
  Completed first pass over input file control.in .
  -----------------------------------------------------------------------
  
  
  -----------------------------------------------------------------------
  Parsing geometry.in (first pass over file, find array dimensions only).
  The contents of geometry.in will be repeated verbatim below
  unless switched off by setting 'verbatim_writeout .false.' .
  in the first line of geometry.in .
  -----------------------------------------------------------------------
  
  #=======================================================
  # FHI-aims file: geometry.in
  # Created using the Atomic Simulation Environment (ASE)
  # Sun Jun 20 15:47:02 2021
  #=======================================================
  atom 8.3015679999999996 32.6543890000000019 35.1629879999999986 H
  atom 8.9559409999999993 31.9322899999999983 34.6778240000000011 C
  atom 8.9755190000000002 30.6177509999999984 35.1180809999999965 C
  atom 9.7589790000000001 32.3303749999999965 33.6164050000000003 C
  atom 8.3534869999999994 30.3132930000000016 35.9580929999999981 H
  atom 9.7906800000000000 29.6715610000000005 34.4937919999999991 C
  atom 9.7382550000000005 33.3681830000000019 33.2807409999999990 H
  atom 10.5749289999999991 31.4018659999999983 32.9898420000000030 C
  atom 9.7178369999999994 28.2126289999999997 34.8291710000000023 C
  atom 10.5855449999999998 30.0846480000000014 33.4219980000000021 C
  atom 11.2129139999999996 31.6976170000000010 32.1557979999999972 H
  atom 8.6341660000000005 27.5064689999999992 34.2833269999999999 C
  atom 10.7549080000000004 27.5222750000000005 35.5275000000000034 C
  atom 11.2203789999999994 29.3541109999999996 32.9251819999999995 H
  atom 7.5460440000000002 28.1796779999999991 33.6215210000000013 C
  atom 8.6341710000000003 26.0716469999999987 34.2833269999999999 C
  atom 10.7549130000000002 26.0558419999999984 35.5275000000000034 C
  atom 11.7919750000000008 28.2126289999999997 36.2258289999999974 C
  atom 6.5293409999999996 27.4978969999999983 33.0357429999999965 C
  atom 7.5480130000000001 29.2663760000000011 33.5969359999999995 H
  atom 7.5460539999999998 25.3984379999999987 33.6215210000000013 C
  atom 9.7178470000000008 25.3654879999999991 34.8291710000000023 C
  atom 11.7919839999999994 25.3654879999999991 36.2258289999999974 C
  atom 11.7191229999999997 29.6715610000000005 36.5612080000000006 C
  atom 12.8756509999999995 27.5064689999999992 36.7716729999999998 C
  atom 5.7171930000000000 28.0312669999999997 32.5468850000000032 H
  atom 6.5293450000000002 26.0802200000000006 33.0357429999999965 C
  atom 7.5480289999999997 24.3117400000000004 33.5969359999999995 H
  atom 9.7906990000000000 23.9065559999999984 34.4937919999999991 C
  atom 11.7191419999999997 23.9065559999999984 36.5612080000000006 C
  atom 12.8756559999999993 26.0716469999999987 36.7716729999999998 C
  atom 10.9242550000000005 30.0846480000000014 37.6330019999999976 C
  atom 12.5342769999999994 30.6177509999999984 35.9369190000000032 C
  atom 13.9637680000000000 28.1796779999999991 37.4334789999999984 C
  atom 5.7172010000000002 25.5468499999999992 32.5468850000000032 H
  atom 8.9755450000000003 22.9603660000000005 35.1180809999999965 C
  atom 10.5855660000000000 23.4934680000000000 33.4219980000000021 C
  atom 10.9242770000000000 23.4934680000000000 37.6330019999999976 C
  atom 12.5343029999999995 22.9603660000000005 35.9369190000000032 C
  atom 13.9637770000000003 25.3984379999999987 37.4334789999999984 C
  atom 10.2893539999999994 29.3541109999999996 38.1298180000000002 H
  atom 10.9348630000000000 31.4018659999999983 38.0651579999999967 C
  atom 13.1563110000000005 30.3132930000000016 35.0969070000000016 H
  atom 12.5538469999999993 31.9322899999999983 36.3771759999999986 C
  atom 13.9617930000000001 29.2663760000000011 37.4580640000000002 H
  atom 14.9804759999999995 27.4978969999999983 38.0192570000000032 C
  atom 8.9559750000000005 21.6458270000000006 34.6778240000000011 C
  atom 8.3535100000000000 23.2648240000000008 35.9580929999999981 H
  atom 10.5749589999999998 22.1762499999999996 32.9898420000000030 C
  atom 11.2204680000000003 24.2240059999999993 32.9251819999999995 H
  atom 10.2894430000000003 24.2240059999999993 38.1298180000000002 H
  atom 10.9348930000000006 22.1762499999999996 38.0651579999999967 C
  atom 12.5538810000000005 21.6458270000000006 36.3771759999999986 C
  atom 13.1563350000000003 23.2648240000000008 35.0969070000000016 H
  atom 13.9618090000000006 24.3117400000000004 37.4580640000000002 H
  atom 14.9804809999999993 26.0802200000000006 38.0192570000000032 C
  atom 10.2968750000000000 31.6976170000000010 38.8992020000000025 H
  atom 11.7508049999999997 32.3303749999999965 37.4385949999999994 C
  atom 13.2082139999999999 32.6543890000000019 35.8920120000000011 H
  atom 15.7926199999999994 28.0312669999999997 38.5081149999999965 H
  atom 8.3016070000000006 20.9237280000000005 35.1629879999999986 H
  atom 9.7590160000000008 21.2477419999999988 33.6164050000000003 C
  atom 11.2129469999999998 21.8804990000000004 32.1557979999999972 H
  atom 10.2969080000000002 21.8804990000000004 38.8992020000000025 H
  atom 11.7508420000000005 21.2477419999999988 37.4385949999999994 C
  atom 13.2082529999999991 20.9237280000000005 35.8920120000000011 H
  atom 15.7926289999999998 25.5468499999999992 38.5081149999999965 H
  atom 11.7715230000000002 33.3681830000000019 37.7742590000000007 H
  atom 9.7382980000000003 20.2099329999999995 33.2807409999999990 H
  atom 11.7715669999999992 20.2099329999999995 37.7742590000000007 H
  
  -----------------------------------------------------------------------
  Completed first pass over input file geometry.in .
  -----------------------------------------------------------------------
  

  Basic array size parameters:
  | Number of species                 :        2
  | Number of atoms                   :       70
  | Max. basis fn. angular momentum   :        4
  | Max. atomic/ionic basis occupied n:        2
  | Max. number of basis fn. types    :        2
  | Max. radial fns per species/type  :        8
  | Max. logarithmic grid size        :     1277
  | Max. radial integration grid size :       69
  | Max. angular integration grid size:      434
  | Max. angular grid division number :        8
  | Radial grid for Hartree potential :     1277
  | Number of spin channels           :        1

------------------------------------------------------------
          Reading file control.in.
------------------------------------------------------------
  XC: Using PBE gradient-corrected functionals.
  Scalar relativistic treatment of kinetic energy: ZORA.
  Threshold value for ZORA:   0.100000E-11
  Occupation type: Gaussian broadening, width =   0.100000E-03 eV.
  Since 'load_balancing .true.' is present in control.in, automatically turning on 'use_local_index .true.'.
  Using load balancing for integrations.
  Kohn-Sham electronic structure solved by the ELSI library.
  Using pulay charge density mixing.
  Pulay mixing - number of memorized iterations:    5
  Charge density mixing - mixing parameter:     0.4000
  Convergence accuracy of total energy:  0.1000E-05
  Convergence accuracy of sum of eigenvalues:  0.1000E-03
  Convergence accuracy of self-consistent charge density:  0.1000E-05
  Maximum number of s.-c. iterations  :   100
  * Ignoring prodbas_threshold
  Threshold for basis singularities:  0.1000E-04
  override_illconditioning: Explicitly overriding any built-in checks for an ill-conditioned overlap matrix.
  *** WARNING: If you use this flag, you should really know what you are doing.
  *** DO NOT keep this flag set by default in all your control.in files.
  Using 1D integrations for auxiliary 2-center integrals.
  Spin treatment: No spin polarisation.
  Charge =   0.000000E+00: Neutral system requested explicitly.
 
  Reading configuration options for species H                   .
  | Found nuclear charge :   1.0000
  | Found atomic mass :    1.00794000000000      amu
  | Found l_max for Hartree potential  :   6
  | Found cutoff potl. onset [A], width [A], scale factor :    4.00000    2.00000    1.00000
  | Threshold for basis-dependent cutoff potential is   0.100000E-03
  | Found data for basic radial integration grid :    24 points, outermost radius =    7.000 A
  | Found multiplier for basic radial grid :   2
  | Found angular grid specification: user-specified.
  | Specified grid contains     6 separate shells.
  | Check grid settings after all constraints further below.
  | Found free-atom valence shell :  1 s   1.000
  | No ionic wave fns used. Skipping ion_occ.
  | Found hydrogenic basis function :  2 s   2.100
  | Found hydrogenic basis function :  2 p   3.500
  | Found hydrogenic basis function :  1 s   0.850
  | Found hydrogenic basis function :  2 p   3.700
  | Found hydrogenic basis function :  2 s   1.200
  | Found hydrogenic basis function :  3 d   7.000
  Species H                   : Missing cutoff potential type.
  Defaulting to exp(1/x)/(1-x)^2 type cutoff potential.
  Species H : No 'logarithmic' tag. Using default grid for free atom:
  | Default logarithmic grid data [bohr] : 0.1000E-03 0.1000E+03 0.1012E+01
  Species H : On-site basis accuracy parameter (for Gram-Schmidt orthonormalisation) not specified.
  Using default value basis_acc =  0.1000000E-03.
  Species H                   : Using default innermost maximum threshold i_radial=  2 for radial functions.
  Species H                   : Default cutoff onset for free atom density etc. : 0.40000000E+01 AA.
  Species H                   : Basic radial grid will be enhanced according to radial_multiplier =   2, to contain    49 grid points.
 
  Reading configuration options for species C                   .
  | Found nuclear charge :   6.0000
  | Found atomic mass :    12.0107000000000      amu
  | Found l_max for Hartree potential  :   6
  | Found cutoff potl. onset [A], width [A], scale factor :    4.00000    2.00000    1.00000
  | Threshold for basis-dependent cutoff potential is   0.100000E-03
  | Found data for basic radial integration grid :    34 points, outermost radius =    7.000 A
  | Found multiplier for basic radial grid :   2
  | Found angular grid specification: user-specified.
  | Specified grid contains     6 separate shells.
  | Check grid settings after all constraints further below.
  | Found free-atom valence shell :  2 s   2.000
  | Found free-atom valence shell :  2 p   2.000
  | No ionic wave fns used. Skipping ion_occ.
  | No ionic wave fns used. Skipping ion_occ.
  | Found hydrogenic basis function :  2 p   1.700
  | Found hydrogenic basis function :  3 d   6.000
  | Found hydrogenic basis function :  2 s   4.900
  | Found hydrogenic basis function :  4 f   9.800
  | Found hydrogenic basis function :  3 p   5.200
  | Found hydrogenic basis function :  3 s   4.300
  | Found hydrogenic basis function :  5 g  14.400
  | Found hydrogenic basis function :  3 d   6.200
  Species C                   : Missing cutoff potential type.
  Defaulting to exp(1/x)/(1-x)^2 type cutoff potential.
  Species C : No 'logarithmic' tag. Using default grid for free atom:
  | Default logarithmic grid data [bohr] : 0.1000E-03 0.1000E+03 0.1012E+01
  Species C : On-site basis accuracy parameter (for Gram-Schmidt orthonormalisation) not specified.
  Using default value basis_acc =  0.1000000E-03.
  Species C                   : Using default innermost maximum threshold i_radial=  2 for radial functions.
  Species C                   : Default cutoff onset for free atom density etc. : 0.40000000E+01 AA.
  Species C                   : Basic radial grid will be enhanced according to radial_multiplier =   2, to contain    69 grid points.
 
  Finished reading input file 'control.in'. Consistency checks are next.
 
  MPI_IN_PLACE appears to work with this MPI implementation.
  | Keeping use_mpi_in_place .true. (see manual).
  Target number of points in a grid batch is not set. Defaulting to  100
  Method for grid partitioning is not set. Defaulting to parallel hash+maxmin partitioning.
  Batch size limit is not set. Defaulting to    200
  By default, will store active basis functions for each batch.
  If in need of memory, prune_basis_once .false. can be used to disable this option.
  communication_type for Hartree potential was not specified.
  Defaulting to calc_hartree .
  Pulay mixer: Number of initial linear mixing iterations not set.
  Defaulting to    0 iterations.
  Work space size for distributed Hartree potential not set.
  Defaulting to   0.200000E+03 MB.
  Algorithm-dependent basis array size parameters:
  | n_max_pulay                         :        5
  Presetting      1001 iterations before the initial mixing cycle
  is restarted anyway using the sc_init_iter criterion / keyword.
  Presetting a factor      1.000 between actual scf density residual
  and density convergence criterion sc_accuracy_rho below which sc_init_iter
  takes no effect.
  Calculation of forces was not defined in control.in. No forces will be calculated.
  Geometry relaxation not requested: no relaxation will be performed.
  No accuracy limit for integral partition fn. given. Defaulting to  0.1000E-14.
  No threshold value for u(r) in integrations given. Defaulting to  0.1000E-05.
  No accuracy for occupation numbers given. Defaulting to  0.1000E-12.
  No threshold value for occupation numbers given. Defaulting to  0.0000E+00.
  No accuracy for fermi level given. Defaulting to  0.1000E-19.
  Maximum # of iterations to find E_F not set. Defaulting to  200.
  Will not use alltoall communication since running on < 1024 CPUs.
  partition_type (choice of integration weights) for integrals was not specified.
  | Using a version of the partition function of Stratmann and coworkers ('stratmann_sparse').
  | At each grid point, the set of atoms used to build the partition table is smoothly restricted to
  | only those atoms whose free-atom density would be non-zero at that grid point.
  Partitioning for Hartree potential was not defined. Using partition_type for integrals.
  | Adjusted default value of keyword multip_moments_threshold to:       0.10000000E-11
  | This value may affect high angular momentum components of the Hartree potential in periodic systems.
  No q(lm)/r^(l+1) cutoff set for long-range Hartree potential.
  | Using default value of  0.100000E-09 .
  | Verify using the multipole_threshold keyword.
  Defaulting to new monopole extrapolation.
  Density update method: automatic selection selected.
 * Warning: use_local_index and/or load_balancing needs packed_matrix_format = index
 * Changing the default setting to packed_matrix_format = index
------------------------------------------------------------


------------------------------------------------------------
          Reading geometry description geometry.in.
------------------------------------------------------------
  Input structure read successfully.
  The structure contains       70 atoms,  and a total of        280.000 electrons.

  Input geometry:
  | No unit cell requested.
  | Atomic structure:
  |       Atom                x [A]            y [A]            z [A]
  |    1: Species H             8.30156800       32.65438900       35.16298800
  |    2: Species C             8.95594100       31.93229000       34.67782400
  |    3: Species C             8.97551900       30.61775100       35.11808100
  |    4: Species C             9.75897900       32.33037500       33.61640500
  |    5: Species H             8.35348700       30.31329300       35.95809300
  |    6: Species C             9.79068000       29.67156100       34.49379200
  |    7: Species H             9.73825500       33.36818300       33.28074100
  |    8: Species C            10.57492900       31.40186600       32.98984200
  |    9: Species C             9.71783700       28.21262900       34.82917100
  |   10: Species C            10.58554500       30.08464800       33.42199800
  |   11: Species H            11.21291400       31.69761700       32.15579800
  |   12: Species C             8.63416600       27.50646900       34.28332700
  |   13: Species C            10.75490800       27.52227500       35.52750000
  |   14: Species H            11.22037900       29.35411100       32.92518200
  |   15: Species C             7.54604400       28.17967800       33.62152100
  |   16: Species C             8.63417100       26.07164700       34.28332700
  |   17: Species C            10.75491300       26.05584200       35.52750000
  |   18: Species C            11.79197500       28.21262900       36.22582900
  |   19: Species C             6.52934100       27.49789700       33.03574300
  |   20: Species H             7.54801300       29.26637600       33.59693600
  |   21: Species C             7.54605400       25.39843800       33.62152100
  |   22: Species C             9.71784700       25.36548800       34.82917100
  |   23: Species C            11.79198400       25.36548800       36.22582900
  |   24: Species C            11.71912300       29.67156100       36.56120800
  |   25: Species C            12.87565100       27.50646900       36.77167300
  |   26: Species H             5.71719300       28.03126700       32.54688500
  |   27: Species C             6.52934500       26.08022000       33.03574300
  |   28: Species H             7.54802900       24.31174000       33.59693600
  |   29: Species C             9.79069900       23.90655600       34.49379200
  |   30: Species C            11.71914200       23.90655600       36.56120800
  |   31: Species C            12.87565600       26.07164700       36.77167300
  |   32: Species C            10.92425500       30.08464800       37.63300200
  |   33: Species C            12.53427700       30.61775100       35.93691900
  |   34: Species C            13.96376800       28.17967800       37.43347900
  |   35: Species H             5.71720100       25.54685000       32.54688500
  |   36: Species C             8.97554500       22.96036600       35.11808100
  |   37: Species C            10.58556600       23.49346800       33.42199800
  |   38: Species C            10.92427700       23.49346800       37.63300200
  |   39: Species C            12.53430300       22.96036600       35.93691900
  |   40: Species C            13.96377700       25.39843800       37.43347900
  |   41: Species H            10.28935400       29.35411100       38.12981800
  |   42: Species C            10.93486300       31.40186600       38.06515800
  |   43: Species H            13.15631100       30.31329300       35.09690700
  |   44: Species C            12.55384700       31.93229000       36.37717600
  |   45: Species H            13.96179300       29.26637600       37.45806400
  |   46: Species C            14.98047600       27.49789700       38.01925700
  |   47: Species C             8.95597500       21.64582700       34.67782400
  |   48: Species H             8.35351000       23.26482400       35.95809300
  |   49: Species C            10.57495900       22.17625000       32.98984200
  |   50: Species H            11.22046800       24.22400600       32.92518200
  |   51: Species H            10.28944300       24.22400600       38.12981800
  |   52: Species C            10.93489300       22.17625000       38.06515800
  |   53: Species C            12.55388100       21.64582700       36.37717600
  |   54: Species H            13.15633500       23.26482400       35.09690700
  |   55: Species H            13.96180900       24.31174000       37.45806400
  |   56: Species C            14.98048100       26.08022000       38.01925700
  |   57: Species H            10.29687500       31.69761700       38.89920200
  |   58: Species C            11.75080500       32.33037500       37.43859500
  |   59: Species H            13.20821400       32.65438900       35.89201200
  |   60: Species H            15.79262000       28.03126700       38.50811500
  |   61: Species H             8.30160700       20.92372800       35.16298800
  |   62: Species C             9.75901600       21.24774200       33.61640500
  |   63: Species H            11.21294700       21.88049900       32.15579800
  |   64: Species H            10.29690800       21.88049900       38.89920200
  |   65: Species C            11.75084200       21.24774200       37.43859500
  |   66: Species H            13.20825300       20.92372800       35.89201200
  |   67: Species H            15.79262900       25.54685000       38.50811500
  |   68: Species H            11.77152300       33.36818300       37.77425900
  |   69: Species H             9.73829800       20.20993300       33.28074100
  |   70: Species H            11.77156700       20.20993300       37.77425900
  |

  | The smallest distance between any two atoms is         1.08697785 AA.
  |
  | The first atom of this pair is atom number                     40 .
  | The second atom of this pair is atom number                    55 .

  Number of empty states per atom not set in control.in - providing a guess from actual geometry.
  | Total number of empty states used during s.c.f. cycle:      168
  If you use a very high smearing, use empty_states (per atom!) in control.in to increase this value.

  Structure-dependent array size parameters: 
  | Maximum number of distinct radial functions  :       18
  | Maximum number of basis functions            :     2058
  | Number of Kohn-Sham states (occupied + empty):      308
------------------------------------------------------------

------------------------------------------------------------
          Preparing all fixed parts of the calculation.
------------------------------------------------------------
  Determining machine precision:
    2.225073858507201E-308
  Setting up grids for atomic and cluster calculations.

  Creating wave function, potential, and density for free atoms.

  Species: H

  List of occupied orbitals and eigenvalues:
    n    l              occ      energy [Ha]    energy [eV]
    1    0           1.0000        -0.238386        -6.4868


  Species: C

  List of occupied orbitals and eigenvalues:
    n    l              occ      energy [Ha]    energy [eV]
    1    0           2.0000       -10.049212      -273.4530
    2    0           2.0000        -0.504761       -13.7352
    2    1           2.0000        -0.193631        -5.2690

  Creating fixed part of basis set: Ionic, confined, hydrogenic.
 
  H                    hydrogenic:
 
  List of hydrogenic basis orbitals: 
    n    l      effective z      eigenvalue [eV]  inner max. [A]     outer max. [A]     outer radius [A]   
    2    0         2.100000       -14.9965           0.193243           1.317208           5.373006
    2    1         3.500000       -41.6672           0.602369           0.602369           4.056063
    1    0         0.850000        -9.8292           0.624871           0.624871           5.373006
    2    1         3.700000       -46.5653           0.573622           0.573622           3.910002
    2    0         1.200000        -4.5995           0.334980           2.228188           5.505995
    3    2         7.000000       -74.0753           0.680699           0.680699           3.769201
 
 
  C                    hydrogenic:
 
  List of hydrogenic basis orbitals: 
    n    l      effective z      eigenvalue [eV]  inner max. [A]     outer max. [A]     outer radius [A]   
    2    1         1.700000        -9.8152           1.245706           1.245706           5.401630
    3    2         6.000000       -54.4226           0.792453           0.792453           4.178599
    2    0         4.900000       -81.6681           0.082559           0.562749           3.353238
    4    3         9.800000       -81.6681           0.863254           0.863254           4.028125
    3    1         5.200000       -40.8774           0.305389           1.215618           4.898362
    3    0         4.300000       -27.9508           0.091041           1.610311           5.401630
    5    4        14.400000      -112.8510           0.917666           0.917666           3.883070
    3    2         6.200000       -58.1113           0.763917           0.763917           4.077671
 

  Adding cutoff potential to free-atom effective potential.
  Creating atomic-like basis functions for current effective potential.

  Species H                   :

  List of atomic basis orbitals and eigenvalues:
    n    l      energy [Ha]    energy [eV]    outer radius [A]
    1    0        -0.238386        -6.4868       5.373006


  Species C                   :

  List of atomic basis orbitals and eigenvalues:
    n    l      energy [Ha]    energy [eV]    outer radius [A]
    1    0       -10.049212      -273.4530       1.934409
    2    0        -0.504761       -13.7352       5.271162
    2    1        -0.193631        -5.2690       5.401630

  Assembling full basis from fixed parts.
  | Species H :   atomic orbital   1 s accepted.
  | Species H :    hydro orbital   2 s accepted.
  | Species H :    hydro orbital   1 s accepted.
  | Species H :    hydro orbital   2 s accepted.
  | Species H :    hydro orbital   2 p accepted.
  | Species H :    hydro orbital   2 p accepted.
  | Species H :    hydro orbital   3 d accepted.
  | Species C :   atomic orbital   1 s accepted.
  | Species C :    hydro orbital   2 s accepted.
  | Species C :   atomic orbital   2 s accepted.
  | Species C :    hydro orbital   3 s accepted.
  | Species C :    hydro orbital   3 p accepted.
  | Species C :   atomic orbital   2 p accepted.
  | Species C :    hydro orbital   2 p accepted.
  | Species C :    hydro orbital   3 d accepted.
  | Species C :    hydro orbital   3 d accepted.
  | Species C :    hydro orbital   4 f accepted.
  | Species C :    hydro orbital   5 g accepted.
 
  Basis size parameters after reduction:
  | Total number of radial functions:       18
  | Total number of basis functions :     2058
 
  Per-task memory consumption for arrays in subroutine allocate_ext:
  |           4.461216MB.
  Testing on-site integration grid accuracy.
  |  Species  Function  <phi|h_atom|phi> (log., in eV)  <phi|h_atom|phi> (rad., in eV)
           1        1                 -6.4870767962                 -6.4871688290
           1        2                 13.5032046589                 13.5028982997
           1        3                 32.8195184817                 32.8119941656
           1        4                 33.8513856511                 33.7670005767 ***
           1        5                 28.8544614965                 28.8544615203
           1        6                 59.6326952547                 59.6327656460
           1        7                 60.2719308513                 60.2719305949
           2        8               -273.4529726040               -273.4529710464
           2        9                -10.7721037319                -10.7721022101
           2       10                 17.6044132601                 17.6044162063
           2       11                 53.7706460658                 53.7706913770
           2       12                 15.0973290362                 15.0973256030
           2       13                  3.8545134692                  3.8545724687
           2       14                 12.1156992592                 12.1182024431
           2       15                 29.4352039302                 29.4352041816
           2       16                 54.8741144708                 54.8740268729
           2       17                 59.3556032049                 59.3556031382
           2       18                 93.4551837154                 93.4551838009
 * Note: Onsite integrals marked "***" above are less accurate than
 * onsite_accuracy_threshold =    0.03000 eV. Usually, this is harmless.
 * When in doubt, tighten the "radial" and/or "radial_multiplier" flags to check.

  Preparing densities etc. for the partition functions (integrals / Hartree potential).

  Preparations completed.
  max(cpu_time)          :      0.188 s.
  Wall clock time (cpu1) :      0.212 s.
------------------------------------------------------------

------------------------------------------------------------
          Begin self-consistency loop: Initialization.

          Date     :  20210620, Time     :  174024.859
------------------------------------------------------------

  Initializing index lists of integration centers etc. from given atomic structure:
  | Number of centers in hartree potential         :        70
  | Number of centers in hartree multipole         :        70
  | Number of centers in electron density summation:        70
  | Number of centers in basis integrals           :        70
  | Number of centers in integrals                 :        70
  | Number of centers in hamiltonian               :        70
  * Using 56 tasks for Scalapack Eigenvalue solver.
  Detailed listing of tasks and assigned k-points:
  (for non-periodic systems, the "k-point" denotes an internal label only)
   Task     0 k-point     1 on d024
   Task     1 k-point     1 on d024
   Task     2 k-point     1 on d024
   Task     3 k-point     1 on d024
   Task     4 k-point     1 on d024
   Task     5 k-point     1 on d024
   Task     6 k-point     1 on d024
   Task     7 k-point     1 on d024
   Task     8 k-point     1 on d024
   Task     9 k-point     1 on d024
   Task    10 k-point     1 on d024
   Task    11 k-point     1 on d024
   Task    12 k-point     1 on d024
   Task    13 k-point     1 on d024
   Task    14 k-point     1 on d024
   Task    15 k-point     1 on d024
   Task    16 k-point     1 on d024
   Task    17 k-point     1 on d024
   Task    18 k-point     1 on d024
   Task    19 k-point     1 on d024
   Task    20 k-point     1 on d024
   Task    21 k-point     1 on d024
   Task    22 k-point     1 on d024
   Task    23 k-point     1 on d024
   Task    24 k-point     1 on d024
   Task    25 k-point     1 on d024
   Task    26 k-point     1 on d024
   Task    27 k-point     1 on d024
   Task    28 k-point     1 on d024
   Task    29 k-point     1 on d024
   Task    30 k-point     1 on d024
   Task    31 k-point     1 on d024
   Task    32 k-point     1 on d024
   Task    33 k-point     1 on d024
   Task    34 k-point     1 on d024
   Task    35 k-point     1 on d024
   Task    36 k-point     1 on d024
   Task    37 k-point     1 on d024
   Task    38 k-point     1 on d024
   Task    39 k-point     1 on d024
   Task    40 k-point     1 on d024
   Task    41 k-point     1 on d024
   Task    42 k-point     1 on d024
   Task    43 k-point     1 on d024
   Task    44 k-point     1 on d024
   Task    45 k-point     1 on d024
   Task    46 k-point     1 on d024
   Task    47 k-point     1 on d024
   Task    48 k-point     1 on d024
   Task    49 k-point     1 on d024
   Task    50 k-point     1 on d024
   Task    51 k-point     1 on d024
   Task    52 k-point     1 on d024
   Task    53 k-point     1 on d024
   Task    54 k-point     1 on d024
   Task    55 k-point     1 on d024
  Tasks:    56 split into      8 X      7 BLACS grid
  Calculating block size based on n_basis =         2058 max_nprow =            8 max_npcol =            7
  ScaLAPACK block size set to:           16
  Allocating        0.647 MB for ovlp
  Allocating        0.647 MB for ham
  Allocating        0.647 MB for eigenvec
  Required Scalapack workspace - INTEGER:            1 REAL:             1
  Partitioning the integration grid into batches with parallel hashing+maxmin method.
  | Number of batches:    10382
  | Maximal batch size:     199
  | Minimal batch size:      35
  | Average batch size:     112.105
  | Standard deviation of batch sizes:      42.286

  Integration load balanced across     56 MPI tasks.
  Work distribution over tasks is as follows:
  Task      0 has      20861 integration points.
  Task      1 has      20966 integration points.
  Task      2 has      20619 integration points.
  Task      3 has      20879 integration points.
  Task      4 has      20749 integration points.
  Task      5 has      20785 integration points.
  Task      6 has      20747 integration points.
  Task      7 has      20814 integration points.
  Task      8 has      20889 integration points.
  Task      9 has      20613 integration points.
  Task     10 has      20806 integration points.
  Task     11 has      20749 integration points.
  Task     12 has      20779 integration points.
  Task     13 has      20727 integration points.
  Task     14 has      20968 integration points.
  Task     15 has      20761 integration points.
  Task     16 has      20709 integration points.
  Task     17 has      20800 integration points.
  Task     18 has      20795 integration points.
  Task     19 has      20789 integration points.
  Task     20 has      20768 integration points.
  Task     21 has      20839 integration points.
  Task     22 has      20773 integration points.
  Task     23 has      20709 integration points.
  Task     24 has      20829 integration points.
  Task     25 has      20704 integration points.
  Task     26 has      20858 integration points.
  Task     27 has      20653 integration points.
  Task     28 has      20858 integration points.
  Task     29 has      20803 integration points.
  Task     30 has      20747 integration points.
  Task     31 has      20970 integration points.
  Task     32 has      20694 integration points.
  Task     33 has      20838 integration points.
  Task     34 has      20624 integration points.
  Task     35 has      20856 integration points.
  Task     36 has      20816 integration points.
  Task     37 has      20751 integration points.
  Task     38 has      20829 integration points.
  Task     39 has      20715 integration points.
  Task     40 has      20784 integration points.
  Task     41 has      20740 integration points.
  Task     42 has      20830 integration points.
  Task     43 has      20856 integration points.
  Task     44 has      20679 integration points.
  Task     45 has      20804 integration points.
  Task     46 has      20803 integration points.
  Task     47 has      20846 integration points.
  Task     48 has      20659 integration points.
  Task     49 has      20847 integration points.
  Task     50 has      20969 integration points.
  Task     51 has      20672 integration points.
  Task     52 has      20744 integration points.
  Task     53 has      20730 integration points.
  Task     54 has      20788 integration points.
  Task     55 has      20686 integration points.
  Initializing partition tables, free-atom densities, potentials, etc. across the integration grid (initialize_grid_storage).
  | initialize_grid_storage: Actual outermost partition radius vs. multipole_radius_free
  | (-- VB: in principle, multipole_radius_free should be larger, hence this output)
  | Species        1: Confinement radius =              6.000000000000000 AA, multipole_radius_free =              6.071692442739658 AA.
  | Species        1: outer_partition_radius set to              6.071692442739658 AA .
  | Species        2: Confinement radius =              6.000000000000000 AA, multipole_radius_free =              6.029870734432609 AA.
  | Species        2: outer_partition_radius set to              6.029870734432609 AA .
  | The sparse table of interatomic distances needs     58.2440 kbyte instead of    39.2000 kbyte of memory.
  | Using the partition_type stratmann_smoother will reduce your memory usage.
  | Net number of integration points:  1163876
  | of which are non-zero points    :   906786
  Renormalizing the initial density to the exact electron count on the 3D integration grid.
  | Initial density: Formal number of electrons (from input files) :     280.0000000000
  | Integrated number of electrons on 3D grid     :     280.0000649430
  | Charge integration error                      :       0.0000649430
  | Normalization factor for density and gradient :       0.9999997681
  Obtaining max. number of non-zero basis functions in each batch (get_n_compute_maxes).
  | Maximal number of non-zero basis functions:     1214
  Selecting the method for density update.
  Loop over occupied states selected for charge density update.
  Hamiltonian matrix size:
  | Size of matrix non-packed:               2118711
  | Size of matrix packed:         1815298
  Allocating        5.071 MB for KS_eigenvector
  use_local_index: Max. local matrix size =      1281724
  Task:     0 matrix size:     471408
  Task:     1 matrix size:     271923
  Task:     2 matrix size:     552887
  Task:     3 matrix size:     353278
  Task:     4 matrix size:     484845
  Task:     5 matrix size:     884605
  Task:     6 matrix size:    1077751
  Task:     7 matrix size:     513126
  Task:     8 matrix size:     545258
  Task:     9 matrix size:     339829
  Task:    10 matrix size:    1047396
  Task:    11 matrix size:    1064311
  Task:    12 matrix size:    1259792
  Task:    13 matrix size:    1173101
  Task:    14 matrix size:     329263
  Task:    15 matrix size:     521023
  Task:    16 matrix size:     421958
  Task:    17 matrix size:    1189175
  Task:    18 matrix size:    1263944
  Task:    19 matrix size:    1062878
  Task:    20 matrix size:    1042843
  Task:    21 matrix size:     507519
  Task:    22 matrix size:     526734
  Task:    23 matrix size:     392686
  Task:    24 matrix size:    1047883
  Task:    25 matrix size:     873614
  Task:    26 matrix size:     481657
  Task:    27 matrix size:     340284
  Task:    28 matrix size:     230087
  Task:    29 matrix size:     807230
  Task:    30 matrix size:     977702
  Task:    31 matrix size:     550131
  Task:    32 matrix size:     680374
  Task:    33 matrix size:     348708
  Task:    34 matrix size:     359098
  Task:    35 matrix size:     975245
  Task:    36 matrix size:    1249724
  Task:    37 matrix size:    1238804
  Task:    38 matrix size:     480661
  Task:    39 matrix size:     602749
  Task:    40 matrix size:     612709
  Task:    41 matrix size:     359884
  Task:    42 matrix size:    1281724
  Task:    43 matrix size:    1155952
  Task:    44 matrix size:    1101920
  Task:    45 matrix size:     349850
  Task:    46 matrix size:     620423
  Task:    47 matrix size:     602749
  Task:    48 matrix size:     485635
  Task:    49 matrix size:    1003460
  Task:    50 matrix size:     585729
  Task:    51 matrix size:     388168
  Task:    52 matrix size:     663078
  Task:    53 matrix size:     351511
  Task:    54 matrix size:     605528
  Task:    55 matrix size:     397770
  Integrating Hamiltonian matrix: batch-based integration.
  Time summed over all CPUs for integration: real work      283.700 s, elapsed      566.362 s
  Time get_set_sparse_local_matrix_scalapack:     0.026691 s
  Start compute_balanced_batch_distribution
  Done load balancing, time needed:      0.011 s
  Integrating overlap matrix with loadbalancing
  Time summed over all CPUs for integration: real work       84.650 s, elapsed       98.685 s
  Time get_set_full_local_matrix_scalapack:     0.031251 s

  Updating Kohn-Sham eigenvalues and eigenvectors using ELSI and the ELPA eigensolver.
  Overlap matrix is not singular
  | Lowest and highest eigenvalues :  0.14E+02,  0.90E-04
  Finished singularity check of overlap matrix
  | Time :     0.167 s
  Finished Cholesky decomposition
  | Time :     0.036 s
  Finished transformation to standard eigenproblem
  | Time :     0.046 s
  Starting ELPA eigensolver
  Finished solving standard eigenproblem
  | Time :     0.174 s
  Finished back-transformation of eigenvectors
  | Time :     0.009 s

  Obtaining occupation numbers and chemical potential using ELSI.
  | Chemical potential (Fermi level):    -7.88707023 eV
  Writing Kohn-Sham eigenvalues.

  State    Occupation    Eigenvalue [Ha]    Eigenvalue [eV]
      1       2.00000         -10.172520         -276.80834
      2       2.00000         -10.172519         -276.80834
      3       2.00000         -10.172198         -276.79958
      4       2.00000         -10.172198         -276.79958
      5       2.00000         -10.172058         -276.79577
      6       2.00000         -10.172058         -276.79577
      7       2.00000         -10.172057         -276.79577
      8       2.00000         -10.172057         -276.79576
      9       2.00000         -10.171850         -276.79013
     10       2.00000         -10.171850         -276.79013
     11       2.00000         -10.171850         -276.79012
     12       2.00000         -10.171850         -276.79012
     13       2.00000         -10.171334         -276.77608
     14       2.00000         -10.171334         -276.77608
     15       2.00000         -10.171334         -276.77608
     16       2.00000         -10.171334         -276.77608
     17       2.00000         -10.171098         -276.76967
     18       2.00000         -10.171098         -276.76967
     19       2.00000         -10.171098         -276.76966
     20       2.00000         -10.171098         -276.76966
     21       2.00000         -10.170975         -276.76632
     22       2.00000         -10.170975         -276.76632
     23       2.00000         -10.170971         -276.76619
     24       2.00000         -10.170971         -276.76619
     25       2.00000         -10.169865         -276.73611
     26       2.00000         -10.169865         -276.73611
     27       2.00000         -10.169861         -276.73600
     28       2.00000         -10.169861         -276.73600
     29       2.00000         -10.163977         -276.57589
     30       2.00000         -10.163977         -276.57589
     31       2.00000         -10.163977         -276.57588
     32       2.00000         -10.163977         -276.57588
     33       2.00000         -10.163515         -276.56332
     34       2.00000         -10.163515         -276.56332
     35       2.00000         -10.163235         -276.55569
     36       2.00000         -10.163235         -276.55569
     37       2.00000         -10.157556         -276.40116
     38       2.00000         -10.157503         -276.39973
     39       2.00000         -10.157406         -276.39709
     40       2.00000         -10.157406         -276.39708
     41       2.00000         -10.157110         -276.38902
     42       2.00000         -10.156950         -276.38468
     43       2.00000          -1.014905          -27.61696
     44       2.00000          -1.001851          -27.26176
     45       2.00000          -1.001174          -27.24332
     46       2.00000          -0.995467          -27.08805
     47       2.00000          -0.991884          -26.99055
     48       2.00000          -0.988430          -26.89656
     49       2.00000          -0.963051          -26.20596
     50       2.00000          -0.934964          -25.44168
     51       2.00000          -0.931185          -25.33884
     52       2.00000          -0.917891          -24.97707
     53       2.00000          -0.891317          -24.25396
     54       2.00000          -0.887218          -24.14243
     55       2.00000          -0.887200          -24.14193
     56       2.00000          -0.885395          -24.09284
     57       2.00000          -0.884925          -24.08004
     58       2.00000          -0.883195          -24.03297
     59       2.00000          -0.882651          -24.01817
     60       2.00000          -0.879751          -23.93924
     61       2.00000          -0.871186          -23.70617
     62       2.00000          -0.857120          -23.32343
     63       2.00000          -0.830334          -22.59453
     64       2.00000          -0.797473          -21.70034
     65       2.00000          -0.772816          -21.02939
     66       2.00000          -0.768867          -20.92195
     67       2.00000          -0.757783          -20.62032
     68       2.00000          -0.749613          -20.39801
     69       2.00000          -0.749081          -20.38352
     70       2.00000          -0.746518          -20.31378
     71       2.00000          -0.745001          -20.27250
     72       2.00000          -0.744260          -20.25233
     73       2.00000          -0.743689          -20.23681
     74       2.00000          -0.741782          -20.18492
     75       2.00000          -0.714793          -19.45052
     76       2.00000          -0.705851          -19.20719
     77       2.00000          -0.700059          -19.04959
     78       2.00000          -0.672107          -18.28896
     79       2.00000          -0.668976          -18.20377
     80       2.00000          -0.660603          -17.97594
     81       2.00000          -0.652737          -17.76187
     82       2.00000          -0.648515          -17.64698
     83       2.00000          -0.637407          -17.34472
     84       2.00000          -0.635169          -17.28384
     85       2.00000          -0.630352          -17.15276
     86       2.00000          -0.630019          -17.14368
     87       2.00000          -0.628758          -17.10938
     88       2.00000          -0.628054          -17.09022
     89       2.00000          -0.623616          -16.96946
     90       2.00000          -0.622953          -16.95141
     91       2.00000          -0.598768          -16.29329
     92       2.00000          -0.590656          -16.07257
     93       2.00000          -0.586550          -15.96083
     94       2.00000          -0.581653          -15.82760
     95       2.00000          -0.576877          -15.69763
     96       2.00000          -0.575706          -15.66576
     97       2.00000          -0.573486          -15.60534
     98       2.00000          -0.573181          -15.59706
     99       2.00000          -0.569328          -15.49221
    100       2.00000          -0.569119          -15.48651
    101       2.00000          -0.566336          -15.41078
    102       2.00000          -0.566236          -15.40808
    103       2.00000          -0.565805          -15.39633
    104       2.00000          -0.564704          -15.36638
    105       2.00000          -0.564606          -15.36372
    106       2.00000          -0.563762          -15.34076
    107       2.00000          -0.540840          -14.71702
    108       2.00000          -0.523510          -14.24543
    109       2.00000          -0.522628          -14.22144
    110       2.00000          -0.516456          -14.05349
    111       2.00000          -0.513109          -13.96241
    112       2.00000          -0.512514          -13.94621
    113       2.00000          -0.510146          -13.88178
    114       2.00000          -0.508327          -13.83227
    115       2.00000          -0.506977          -13.79555
    116       2.00000          -0.506429          -13.78065
    117       2.00000          -0.505427          -13.75337
    118       2.00000          -0.496754          -13.51737
    119       2.00000          -0.495442          -13.48167
    120       2.00000          -0.494977          -13.46901
    121       2.00000          -0.494033          -13.44333
    122       2.00000          -0.492790          -13.40950
    123       2.00000          -0.488068          -13.28101
    124       2.00000          -0.484399          -13.18117
    125       2.00000          -0.475628          -12.94249
    126       2.00000          -0.470157          -12.79361
    127       2.00000          -0.431985          -11.75492
    128       2.00000          -0.431141          -11.73193
    129       2.00000          -0.423177          -11.51523
    130       2.00000          -0.412530          -11.22552
    131       2.00000          -0.411912          -11.20870
    132       2.00000          -0.411910          -11.20865
    133       2.00000          -0.410333          -11.16573
    134       2.00000          -0.397878          -10.82681
    135       2.00000          -0.397357          -10.81264
    136       2.00000          -0.392322          -10.67563
    137       2.00000          -0.386688          -10.52232
    138       2.00000          -0.385604          -10.49282
    139       2.00000          -0.381136          -10.37124
    140       2.00000          -0.336647           -9.16062
    141       0.00000          -0.276525           -7.52464
    142       0.00000          -0.225834           -6.14527
    143       0.00000          -0.225014           -6.12294
    144       0.00000          -0.224491           -6.10870
    145       0.00000          -0.223355           -6.07781
    146       0.00000          -0.217395           -5.91563
    147       0.00000          -0.212978           -5.79542
    148       0.00000          -0.204787           -5.57253
    149       0.00000          -0.204444           -5.56321
    150       0.00000          -0.203129           -5.52742
    151       0.00000          -0.199022           -5.41565
    152       0.00000          -0.183373           -4.98983
    153       0.00000          -0.171011           -4.65344
    154       0.00000          -0.166612           -4.53373
    155       0.00000          -0.107976           -2.93819
    156       0.00000          -0.084861           -2.30919
    157       0.00000          -0.082146           -2.23530
    158       0.00000          -0.077545           -2.11011
    159       0.00000          -0.075980           -2.06752
    160       0.00000          -0.071403           -1.94297
    161       0.00000          -0.066577           -1.81165
    162       0.00000          -0.064302           -1.74974
    163       0.00000          -0.063534           -1.72886
    164       0.00000          -0.061910           -1.68465
    165       0.00000          -0.058791           -1.59979
    166       0.00000          -0.056858           -1.54719
    167       0.00000          -0.049807           -1.35533
    168       0.00000          -0.045404           -1.23549
    169       0.00000          -0.044708           -1.21657
    170       0.00000          -0.039987           -1.08810
    171       0.00000          -0.038925           -1.05921
    172       0.00000          -0.030176           -0.82112
    173       0.00000          -0.029965           -0.81540
    174       0.00000          -0.027810           -0.75675
    175       0.00000          -0.024750           -0.67349
    176       0.00000          -0.022098           -0.60132
    177       0.00000          -0.019949           -0.54285
    178       0.00000          -0.015779           -0.42936
    179       0.00000          -0.014116           -0.38411
    180       0.00000          -0.013154           -0.35794
    181       0.00000          -0.009493           -0.25832
    182       0.00000          -0.008176           -0.22247
    183       0.00000          -0.004391           -0.11948
    184       0.00000          -0.003761           -0.10235
    185       0.00000           0.000974            0.02651
    186       0.00000           0.003013            0.08199
    187       0.00000           0.005229            0.14229
    188       0.00000           0.007565            0.20584
    189       0.00000           0.009814            0.26705
    190       0.00000           0.013076            0.35582
    191       0.00000           0.014249            0.38773
    192       0.00000           0.017229            0.46881
    193       0.00000           0.019824            0.53945
    194       0.00000           0.030895            0.84069
    195       0.00000           0.031491            0.85690
    196       0.00000           0.035849            0.97550
    197       0.00000           0.039460            1.07375
    198       0.00000           0.044588            1.21330
    199       0.00000           0.045847            1.24757
    200       0.00000           0.046868            1.27534
    201       0.00000           0.048753            1.32665
    202       0.00000           0.049950            1.35922
    203       0.00000           0.051012            1.38810
    204       0.00000           0.055608            1.51317
    205       0.00000           0.055747            1.51695
    206       0.00000           0.055793            1.51821
    207       0.00000           0.056897            1.54826
    208       0.00000           0.062870            1.71077
    209       0.00000           0.062923            1.71222
    210       0.00000           0.067553            1.83822
    211       0.00000           0.068605            1.86684
    212       0.00000           0.072412            1.97042
    213       0.00000           0.073478            1.99943
    214       0.00000           0.074811            2.03571
    215       0.00000           0.075005            2.04099
    216       0.00000           0.077239            2.10179
    217       0.00000           0.079297            2.15778
    218       0.00000           0.079559            2.16492
    219       0.00000           0.083208            2.26420
    220       0.00000           0.084299            2.29389
    221       0.00000           0.085732            2.33289
    222       0.00000           0.087386            2.37790
    223       0.00000           0.088013            2.39495
    224       0.00000           0.090943            2.47469
    225       0.00000           0.091430            2.48794
    226       0.00000           0.093652            2.54839
    227       0.00000           0.099883            2.71795
    228       0.00000           0.100592            2.73725
    229       0.00000           0.101308            2.75672
    230       0.00000           0.102650            2.79325
    231       0.00000           0.104620            2.84685
    232       0.00000           0.107593            2.92776
    233       0.00000           0.109751            2.98647
    234       0.00000           0.112160            3.05202
    235       0.00000           0.112654            3.06548
    236       0.00000           0.113386            3.08540
    237       0.00000           0.114657            3.11998
    238       0.00000           0.115517            3.14339
    239       0.00000           0.116886            3.18064
    240       0.00000           0.121133            3.29620
    241       0.00000           0.121679            3.31106
    242       0.00000           0.124031            3.37506
    243       0.00000           0.125977            3.42802
    244       0.00000           0.129578            3.52600
    245       0.00000           0.130211            3.54322
    246       0.00000           0.133667            3.63725
    247       0.00000           0.134912            3.67115
    248       0.00000           0.137782            3.74924
    249       0.00000           0.139368            3.79241
    250       0.00000           0.141403            3.84777
    251       0.00000           0.142213            3.86982
    252       0.00000           0.143264            3.89841
    253       0.00000           0.146961            3.99900
    254       0.00000           0.152049            4.13745
    255       0.00000           0.152362            4.14597
    256       0.00000           0.155573            4.23336
    257       0.00000           0.156252            4.25185
    258       0.00000           0.160546            4.36869
    259       0.00000           0.161845            4.40402
    260       0.00000           0.163965            4.46172
    261       0.00000           0.164319            4.47136
    262       0.00000           0.167416            4.55561
    263       0.00000           0.167769            4.56522
    264       0.00000           0.168245            4.57817
    265       0.00000           0.173514            4.72155
    266       0.00000           0.175083            4.76424
    267       0.00000           0.175784            4.78332
    268       0.00000           0.178790            4.86513
    269       0.00000           0.179406            4.88189
    270       0.00000           0.182066            4.95427
    271       0.00000           0.185641            5.05156
    272       0.00000           0.187544            5.10334
    273       0.00000           0.189284            5.15068
    274       0.00000           0.190937            5.19566
    275       0.00000           0.193660            5.26975
    276       0.00000           0.197812            5.38275
    277       0.00000           0.198657            5.40572
    278       0.00000           0.199459            5.42754
    279       0.00000           0.200373            5.45243
    280       0.00000           0.201753            5.48997
    281       0.00000           0.202112            5.49974
    282       0.00000           0.205548            5.59323
    283       0.00000           0.207895            5.65710
    284       0.00000           0.208131            5.66352
    285       0.00000           0.213895            5.82037
    286       0.00000           0.219468            5.97202
    287       0.00000           0.221869            6.03737
    288       0.00000           0.221960            6.03984
    289       0.00000           0.222652            6.05866
    290       0.00000           0.227726            6.19673
    291       0.00000           0.228493            6.21760
    292       0.00000           0.230794            6.28022
    293       0.00000           0.231559            6.30104
    294       0.00000           0.236784            6.44322
    295       0.00000           0.237639            6.46647
    296       0.00000           0.241573            6.57354
    297       0.00000           0.242682            6.60371
    298       0.00000           0.243927            6.63759
    299       0.00000           0.244605            6.65605
    300       0.00000           0.248733            6.76838
    301       0.00000           0.255868            6.96253
    302       0.00000           0.262488            7.14267
    303       0.00000           0.265008            7.21124
    304       0.00000           0.268073            7.29463
    305       0.00000           0.268240            7.29919
    306       0.00000           0.270879            7.37099
    307       0.00000           0.271033            7.37517
    308       0.00000           0.281880            7.67036

  Highest occupied state (VBM) at     -9.16062424 eV
  | Occupation number:      2.00000000

  Lowest unoccupied state (CBM) at    -7.52463590 eV
  | Occupation number:      0.00000000

  Overall HOMO-LUMO gap:      1.63598834 eV.
  Calculating total energy contributions from superposition of free atom densities.

  Total energy components:
  | Sum of eigenvalues            :        -980.13086403 Ha      -26670.71780130 eV
  | XC energy correction          :        -232.32285203 Ha       -6321.82645469 eV
  | XC potential correction       :         298.42240447 Ha        8120.48679142 eV
  | Free-atom electrostatic energy:        -704.60201553 Ha      -19173.19636397 eV
  | Hartree energy correction     :           0.00000000 Ha           0.00000000 eV
  | Entropy correction            :           0.00000000 Ha           0.00000000 eV
  | ---------------------------
  | Total energy                  :       -1618.63332711 Ha      -44045.25382855 eV
  | Total energy, T -> 0          :       -1618.63332711 Ha      -44045.25382855 eV  <-- do not rely on this value for anything but (periodic) metals
  | Electronic free energy        :       -1618.63332711 Ha      -44045.25382855 eV

  Derived energy quantities:
  | Kinetic energy                :        1602.85981198 Ha       43616.03464350 eV
  | Electrostatic energy          :       -2989.17028707 Ha      -81339.46201736 eV
  | Energy correction for multipole
  | error in Hartree potential    :           0.00000000 Ha           0.00000000 eV
  | Sum of eigenvalues per atom                           :        -381.01025430 eV
  | Total energy (T->0) per atom                          :        -629.21791184 eV  <-- do not rely on this value for anything but (periodic) metals
  | Electronic free energy per atom                       :        -629.21791184 eV
  Initialize hartree_potential_storage
  Max. number of atoms included in rho_multipole:           70

  End scf initialization - timings             :  max(cpu_time)    wall_clock(cpu1)
  | Time for scf. initialization               :       15.436 s          15.578 s
  | Boundary condition initialization          :        0.000 s           0.008 s
  | Integration                                :       11.971 s          11.988 s
  | Solution of K.-S. eqns.                    :        0.449 s           0.483 s
  | Grid partitioning                          :        1.171 s           1.183 s
  | Preloading free-atom quantities on grid    :        0.013 s           0.022 s
  | Free-atom superposition energy             :        0.127 s           0.129 s
  | Total energy evaluation                    :        0.001 s           0.006 s

  Partial memory accounting:
  | Current value for overall tracked memory usage on task 0  :           8.898 MB
  | Peak value for overall tracked memory usage on task 0     :          41.883 MB after allocating zora_vector2
  | Largest tracked array allocation on task 0 so far         :          11.790 MB  when allocating hamiltonian_shell
  Note:  These values currently only include a subset of arrays which are explicitly tracked.
  The "true" memory usage will be greater.
------------------------------------------------------------

------------------------------------------------------------
          Begin self-consistency iteration #    1

  Date     :  20210620, Time     :  174040.443
------------------------------------------------------------
  Evaluating new KS density.
  Integration grid: deviation in total charge (<rho> - N_e) =   1.705303E-13
  Pulay mixing of updated and previous charge densities.

  Evaluating partitioned Hartree potential by multipole expansion.
  | Analytical far-field extrapolation by fixed multipoles:
  | Hartree multipole sum: apparent total charge =   0.516125E-04
  Summing up the Hartree potential with load balancing.
  Time summed over all CPUs for potential: real work       48.856 s, elapsed       78.553 s
  | RMS charge density error from multipole expansion :   0.156323E-01

  Start compute_balanced_batch_distribution
  Done load balancing, time needed:      0.010 s
  Integrating Hamiltonian matrix: batch-based integration with load balancing
  Time summed over all CPUs for integration: real work      313.488 s, elapsed      344.632 s
  Time get_set_full_local_matrix_scalapack:     0.031329 s
  Start compute_balanced_batch_distribution
  Done load balancing, time needed:      0.010 s

  Updating Kohn-Sham eigenvalues and eigenvectors using ELSI and the ELPA eigensolver.
  Finished transformation to standard eigenproblem
  | Time :     0.048 s
  Starting ELPA eigensolver
  Finished solving standard eigenproblem
  | Time :     0.171 s
  Finished back-transformation of eigenvectors
  | Time :     0.008 s

  Obtaining occupation numbers and chemical potential using ELSI.
  | Chemical potential (Fermi level):    -5.44383930 eV
  Writing Kohn-Sham eigenvalues.

  State    Occupation    Eigenvalue [Ha]    Eigenvalue [eV]
      1       2.00000         -10.001850         -272.16420
      2       2.00000         -10.001636         -272.15838
      3       2.00000          -9.991803         -271.89080
      4       2.00000          -9.991803         -271.89079
      5       2.00000          -9.991799         -271.89067
      6       2.00000          -9.991798         -271.89067
      7       2.00000          -9.975476         -271.44652
      8       2.00000          -9.975476         -271.44652
      9       2.00000          -9.975193         -271.43881
     10       2.00000          -9.975193         -271.43881
     11       2.00000          -9.965966         -271.18774
     12       2.00000          -9.965966         -271.18774
     13       2.00000          -9.965966         -271.18772
     14       2.00000          -9.965965         -271.18772
     15       2.00000          -9.940427         -270.49278
     16       2.00000          -9.940427         -270.49278
     17       2.00000          -9.940424         -270.49270
     18       2.00000          -9.940424         -270.49270
     19       2.00000          -9.938021         -270.42732
     20       2.00000          -9.938021         -270.42732
     21       2.00000          -9.938020         -270.42728
     22       2.00000          -9.938020         -270.42728
     23       2.00000          -9.937794         -270.42112
     24       2.00000          -9.937794         -270.42112
     25       2.00000          -9.937482         -270.41264
     26       2.00000          -9.937482         -270.41263
     27       2.00000          -9.937481         -270.41260
     28       2.00000          -9.937480         -270.41260
     29       2.00000          -9.937466         -270.41220
     30       2.00000          -9.937466         -270.41220
     31       2.00000          -9.937185         -270.40457
     32       2.00000          -9.937185         -270.40457
     33       2.00000          -9.937185         -270.40456
     34       2.00000          -9.937185         -270.40456
     35       2.00000          -9.937092         -270.40204
     36       2.00000          -9.937092         -270.40204
     37       2.00000          -9.937090         -270.40199
     38       2.00000          -9.937090         -270.40199
     39       2.00000          -9.936859         -270.39569
     40       2.00000          -9.936859         -270.39569
     41       2.00000          -9.936858         -270.39566
     42       2.00000          -9.936858         -270.39565
     43       2.00000          -0.878779          -23.91279
     44       2.00000          -0.850702          -23.14877
     45       2.00000          -0.841065          -22.88653
     46       2.00000          -0.829692          -22.57706
     47       2.00000          -0.827137          -22.50755
     48       2.00000          -0.822624          -22.38474
     49       2.00000          -0.812677          -22.11408
     50       2.00000          -0.792398          -21.56224
     51       2.00000          -0.779689          -21.21642
     52       2.00000          -0.771218          -20.98590
     53       2.00000          -0.738901          -20.10651
     54       2.00000          -0.728840          -19.83274
     55       2.00000          -0.728662          -19.82791
     56       2.00000          -0.728651          -19.82760
     57       2.00000          -0.727960          -19.80880
     58       2.00000          -0.727271          -19.79005
     59       2.00000          -0.724955          -19.72702
     60       2.00000          -0.724046          -19.70228
     61       2.00000          -0.720811          -19.61427
     62       2.00000          -0.708548          -19.28057
     63       2.00000          -0.679698          -18.49554
     64       2.00000          -0.655278          -17.83103
     65       2.00000          -0.629760          -17.13665
     66       2.00000          -0.626377          -17.04458
     67       2.00000          -0.612388          -16.66394
     68       2.00000          -0.603401          -16.41938
     69       2.00000          -0.602878          -16.40514
     70       2.00000          -0.602348          -16.39073
     71       2.00000          -0.598230          -16.27867
     72       2.00000          -0.598112          -16.27546
     73       2.00000          -0.594434          -16.17538
     74       2.00000          -0.591613          -16.09860
     75       2.00000          -0.569405          -15.49429
     76       2.00000          -0.562428          -15.30444
     77       2.00000          -0.558569          -15.19945
     78       2.00000          -0.538022          -14.64031
     79       2.00000          -0.529171          -14.39948
     80       2.00000          -0.526407          -14.32426
     81       2.00000          -0.518889          -14.11968
     82       2.00000          -0.511399          -13.91589
     83       2.00000          -0.504374          -13.72472
     84       2.00000          -0.503312          -13.69582
     85       2.00000          -0.487950          -13.27780
     86       2.00000          -0.470789          -12.81083
     87       2.00000          -0.470366          -12.79930
[...]
    138       2.00000          -0.208706           -5.67918
    139       2.00000          -0.206627           -5.62261
    140       2.00000          -0.165894           -4.51420
    141       0.00000          -0.109119           -2.96927
    142       0.00000          -0.058144           -1.58218
    143       0.00000          -0.057569           -1.56653
    144       0.00000          -0.055495           -1.51011
    145       0.00000          -0.054508           -1.48323
    146       0.00000          -0.047627           -1.29599
    147       0.00000          -0.043044           -1.17128
    148       0.00000          -0.032860           -0.89415
    149       0.00000          -0.032413           -0.88202
    150       0.00000          -0.029258           -0.79616
    151       0.00000          -0.025119           -0.68353
    152       0.00000          -0.014304           -0.38924
    153       0.00000          -0.010317           -0.28073
    154       0.00000          -0.007529           -0.20488
    155       0.00000          -0.000500           -0.01359
    156       0.00000           0.000333            0.00906
    157       0.00000           0.003372            0.09175
    158       0.00000           0.006662            0.18129
    159       0.00000           0.009183            0.24989
    160       0.00000           0.010525            0.28640
    161       0.00000           0.011091            0.30180
    162       0.00000           0.012854            0.34977
    163       0.00000           0.018927            0.51504
    164       0.00000           0.026184            0.71249
    165       0.00000           0.031384            0.85400
    166       0.00000           0.031794            0.86517
    167       0.00000           0.037147            1.01083
    168       0.00000           0.037687            1.02553
    169       0.00000           0.041867            1.13925
    170       0.00000           0.042405            1.15389
    171       0.00000           0.048169            1.31073
    172       0.00000           0.048590            1.32220
    173       0.00000           0.056102            1.52663
    174       0.00000           0.058411            1.58943
    175       0.00000           0.064710            1.76084
    176       0.00000           0.065247            1.77547
    177       0.00000           0.065254            1.77565
    178       0.00000           0.067037            1.82418
    179       0.00000           0.070925            1.92997
    180       0.00000           0.078516            2.13653
    181       0.00000           0.082877            2.25519
    182       0.00000           0.087157            2.37165
    183       0.00000           0.091733            2.49617
    184       0.00000           0.092375            2.51366
    185       0.00000           0.093986            2.55750
    186       0.00000           0.103126            2.80620
    187       0.00000           0.110125            2.99664
    188       0.00000           0.110642            3.01071
    189       0.00000           0.116089            3.15893
    190       0.00000           0.119781            3.25941
    191       0.00000           0.121141            3.29641
    192       0.00000           0.127324            3.46466
    193       0.00000           0.128687            3.50176
    194       0.00000           0.128940            3.50863
    195       0.00000           0.136028            3.70152
    196       0.00000           0.136177            3.70555
    197       0.00000           0.141479            3.84985
    198       0.00000           0.147222            4.00610
    199       0.00000           0.149984            4.08126
    200       0.00000           0.151063            4.11064
    201       0.00000           0.151212            4.11470
    202       0.00000           0.152409            4.14726
    203       0.00000           0.158331            4.30840
    204       0.00000           0.159496            4.34009
    205       0.00000           0.161139            4.38482
    206       0.00000           0.164049            4.46399
    207       0.00000           0.164121            4.46597
    208       0.00000           0.167046            4.54556
    209       0.00000           0.169688            4.61744
    210       0.00000           0.169924            4.62387
    211       0.00000           0.176484            4.80239
    212       0.00000           0.178597            4.85987
    213       0.00000           0.180473            4.91091
    214       0.00000           0.181082            4.92749
    215       0.00000           0.181139            4.92904
    216       0.00000           0.181932            4.95061
    217       0.00000           0.182248            4.95922
    218       0.00000           0.186986            5.08816
    219       0.00000           0.190916            5.19509
    220       0.00000           0.191760            5.21807
    221       0.00000           0.194059            5.28061
    222       0.00000           0.195379            5.31653
    223       0.00000           0.199681            5.43359
    224       0.00000           0.204809            5.57314
    225       0.00000           0.206755            5.62608
    226       0.00000           0.207161            5.63714
    227       0.00000           0.207410            5.64393
    228       0.00000           0.208081            5.66217
    229       0.00000           0.213438            5.80794
    230       0.00000           0.213520            5.81018
    231       0.00000           0.216217            5.88356
    232       0.00000           0.217076            5.90694
    233       0.00000           0.218761            5.95280
    234       0.00000           0.221902            6.03827
    235       0.00000           0.222615            6.05767
    236       0.00000           0.222740            6.06107
    237       0.00000           0.224260            6.10241
    238       0.00000           0.225184            6.12756
    239       0.00000           0.228611            6.22081
    240       0.00000           0.229005            6.23155
    241       0.00000           0.231029            6.28663
    242       0.00000           0.231249            6.29261
    243       0.00000           0.231711            6.30518
    244       0.00000           0.235017            6.39512
    245       0.00000           0.239516            6.51755
    246       0.00000           0.241039            6.55900
    247       0.00000           0.241118            6.56114
    248       0.00000           0.241651            6.57565
    249       0.00000           0.245788            6.68824
    250       0.00000           0.246260            6.70107
    251       0.00000           0.247386            6.73172
    252       0.00000           0.250841            6.82572
    253       0.00000           0.253862            6.90794
    254       0.00000           0.255991            6.96586
    255       0.00000           0.259482            7.06086
    256       0.00000           0.261082            7.10441
    257       0.00000           0.262346            7.13880
    258       0.00000           0.264985            7.21061
    259       0.00000           0.268376            7.30288
    260       0.00000           0.269894            7.34419
    261       0.00000           0.270649            7.36474
    262       0.00000           0.274157            7.46018
    263       0.00000           0.275011            7.48344
    264       0.00000           0.276943            7.53600
    265       0.00000           0.277397            7.54835
    266       0.00000           0.282701            7.69269
    267       0.00000           0.284139            7.73183
    268       0.00000           0.285765            7.77607
    269       0.00000           0.291436            7.93038
    270       0.00000           0.293576            7.98860
    271       0.00000           0.296209            8.06027
    272       0.00000           0.298907            8.13368
    273       0.00000           0.300895            8.18776
    274       0.00000           0.301492            8.20403
    275       0.00000           0.304467            8.28496
    276       0.00000           0.306244            8.33334
    277       0.00000           0.312054            8.49143
    278       0.00000           0.312414            8.50121
    279       0.00000           0.315208            8.57725
    280       0.00000           0.319503            8.69412
    281       0.00000           0.321871            8.75856
    282       0.00000           0.324210            8.82219
    283       0.00000           0.324501            8.83011
    284       0.00000           0.327302            8.90633
    285       0.00000           0.327444            8.91021
    286       0.00000           0.330645            8.99730
    287       0.00000           0.333570            9.07691
    288       0.00000           0.338707            9.21668
    289       0.00000           0.339925            9.24983
    290       0.00000           0.340162            9.25629
    291       0.00000           0.343879            9.35744
    292       0.00000           0.345266            9.39517
    293       0.00000           0.348844            9.49253
    294       0.00000           0.349814            9.51893
    295       0.00000           0.355588            9.67603
    296       0.00000           0.355643            9.67754
    297       0.00000           0.366167            9.96391
    298       0.00000           0.370183           10.07320
    299       0.00000           0.370355           10.07787
    300       0.00000           0.371784           10.11676
    301       0.00000           0.374010           10.17734
    302       0.00000           0.382171           10.39940
    303       0.00000           0.386617           10.52039
    304       0.00000           0.387184           10.53581
    305       0.00000           0.387612           10.54746
    306       0.00000           0.389206           10.59084
    307       0.00000           0.392589           10.68288
    308       0.00000           0.397631           10.82008

  Highest occupied state (VBM) at     -4.51420165 eV
  | Occupation number:      2.00000000

  Lowest unoccupied state (CBM) at    -2.96927489 eV
  | Occupation number:      0.00000000

  Overall HOMO-LUMO gap:      1.54492676 eV.

  Total energy components:
  | Sum of eigenvalues            :        -918.94638777 Ha      -25005.80349242 eV
  | XC energy correction          :        -236.76102057 Ha       -6442.59516522 eV
  | XC potential correction       :         304.15021649 Ha        8276.34848659 eV
  | Free-atom electrostatic energy:        -704.60201553 Ha      -19173.19636397 eV
  | Hartree energy correction     :         -60.45275480 Ha       -1645.00315505 eV
  | Entropy correction            :           0.00000000 Ha           0.00000000 eV
  | ---------------------------
  | Total energy                  :       -1616.61196218 Ha      -43990.24969006 eV
  | Total energy, T -> 0          :       -1616.61196218 Ha      -43990.24969006 eV  <-- do not rely on this value for anything but (periodic) metals
  | Electronic free energy        :       -1616.61196218 Ha      -43990.24969006 eV

  Derived energy quantities:
  | Kinetic energy                :        1612.14776000 Ha       43868.77256810 eV
  | Electrostatic energy          :       -2991.99870161 Ha      -81416.42709295 eV
  | Energy correction for multipole
  | error in Hartree potential    :          -0.19328915 Ha          -5.25966533 eV
  | Sum of eigenvalues per atom                           :        -357.22576418 eV
  | Total energy (T->0) per atom                          :        -628.43213843 eV  <-- do not rely on this value for anything but (periodic) metals
  | Electronic free energy per atom                       :        -628.43213843 eV
  End evaluation of scaled ZORA corrections.
  | Time for scaled ZORA corrections           :       11.332 s          11.344 s
------------------------------------------------------------

  Energy and forces in a compact form:
  | Total energy uncorrected      :         -0.439902496900644E+05 eV
  | Total energy corrected        :         -0.439902496900644E+05 eV  <-- do not rely on this value for anything but (periodic) metals
  | Electronic free energy        :         -0.439902496900644E+05 eV

  ------------------------------------ 
  Start decomposition of the XC Energy 
  ------------------------------------ 
  X and C from original XC functional choice 
  Hartree-Fock Energy :          0.000000000 Ha              0.000000000 eV
  X Energy            :       -227.394282013 Ha          -6187.713240967 eV
  C Energy            :         -9.366738552 Ha           -254.881924249 eV
  Total XC Energy     :       -236.761020565 Ha          -6442.595165215 eV
  ------------------------------------ 
  LDA X and C from self-consistent density 
  X Energy LDA        :       -205.942855466 Ha          -5603.990225120 eV
  C Energy LDA        :        -18.038646256 Ha           -490.856539126 eV
  ------------------------------------ 
  End decomposition of the XC Energy 
  ------------------------------------ 

------------------------------------------------------------

------------------------------------------------------------------------------
  Final output of selected total energy values:

  The following output summarizes some interesting total energy values
  at the end of a run (AFTER all relaxation, molecular dynamics, etc.).

  | Total energy of the DFT / Hartree-Fock s.c.f. calculation      :         -43990.249690064 eV
  | Final zero-broadening corrected energy (caution - metals only) :         -43990.249690064 eV
  | For reference only, the value of 1 Hartree used in FHI-aims is :             27.211384500 eV

  Before relying on these values, please be sure to understand exactly which
  total energy value is referred to by a given number. Different objects may
  all carry the same name 'total energy'. Definitions:

  Total energy of the DFT / Hartree-Fock s.c.f. calculation:
  | Note that this energy does not include ANY quantities calculated after the
  | s.c.f. cycle, in particular not ANY RPA, MP2, etc. many-body perturbation terms.
  | Scalar relativistic effects have been included in the 'scaled ZORA' approximation.

  Final zero-broadening corrected energy:
  | For metallic systems only, a broadening of the occupation numbers at the Fermi
  | level can be extrapolated back to zero broadening by an electron-gas inspired
  | formula. For all systems that are not real metals, this value can be
  | meaningless and should be avoided.

------------------------------------------------------------------------------
  Methods described in the following list of references were used in this FHI-aims run.
  If you publish the results, please make sure to cite these reference if they apply.
  FHI-aims is an academic code, and for our developers (often, Ph.D. students
  and postdocs), scientific credit in the community is essential.
  Thank you for helping us!

  For any use of FHI-aims, please cite:

    Volker Blum, Ralf Gehrke, Felix Hanke, Paula Havu, Ville Havu,
    Xinguo Ren, Karsten Reuter, and Matthias Scheffler
    'Ab initio molecular simulations with numeric atom-centered orbitals'
    Computer Physics Communications 180, 2175-2196 (2009)
    http://dx.doi.org/10.1016/j.cpc.2009.06.022


  The scalable eigensolver library ELPA was used in your run.
  ELPA is essential especially for large systems on hundreds or thousands of CPUs.
  For ELPA, please cite:

    Andreas Marek, Volker Blum, Rainer Johanni, Ville Havu, Bruno Lang,
    Thomas Auckenthaler, Alexander Heinecke, Hans-Joachim Bungartz, and Hermann Lederer,
    'The ELPA Library - Scalable Parallel Eigenvalue Solutions
    for Electronic Structure Theory and Computational Science'
    The Journal of Physics: Condensed Matter 26, 213201 (2014).
    http://dx.doi.org/10.1088/0953-8984/26/21/213201


  The ELSI infrastructure was used in your run to solve the Kohn-Sham electronic structure.
  Please check out http://elsi-interchange.org to learn more.
  If scalability is important for your project, please acknowledge ELSI by citing:

    V. W-z. Yu, F. Corsetti, A. Garcia, W. P. Huhn, M. Jacquelin, W. Jia,
    B. Lange, L. Lin, J. Lu, W. Mi, A. Seifitokaldani, A. Vazquez-Mayagoitia,
    C. Yang, H. Yang, and V. Blum
    'ELSI: A unified software interface for Kohn-Sham electronic structure solvers'
    Computer Physics Communications 222, 267-285 (2018).
    http://dx.doi.org/10.1016/j.cpc.2017.09.007


  For the real-space grid partitioning and parallelization used in this calculation, please cite:

    Ville Havu, Volker Blum, Paula Havu, and Matthias Scheffler,
    'Efficient O(N) integration for all-electron electronic structure calculation'
    'using numerically tabulated basis functions'
    Journal of Computational Physics 228, 8367-8379 (2009).
    http://dx.doi.org/10.1016/j.jcp.2009.08.008

  Of course, there are many other important community references, e.g., those cited in the
  above references. Our list is limited to references that describe implementations in the
  FHI-aims code. The reason is purely practical (length of this list) - please credit others as well.

------------------------------------------------------------
          Leaving FHI-aims.
          Date     :  20210620, Time     :  174352.573

          Computational steps:
          | Number of self-consistency cycles          :           18
          | Number of SCF (re)initializations          :            1

          Detailed time accounting                     :  max(cpu_time)    wall_clock(cpu1)
          | Total time                                 :      207.915 s         217.000 s
          | Preparation time                           :        0.188 s           0.212 s
          | Boundary condition initalization           :        0.000 s           0.008 s
          | Grid partitioning                          :        1.171 s           1.183 s
          | Preloading free-atom quantities on grid    :        0.013 s           0.022 s
          | Free-atom superposition energy             :        0.127 s           0.129 s
          | Total time for integrations                :      118.688 s         118.707 s
          | Total time for solution of K.-S. equations :        5.985 s           6.027 s
          | Total time for density update              :       49.750 s          49.693 s
          | Total time for mixing                      :        0.210 s           0.217 s
          | Total time for Hartree multipole update    :        0.245 s           0.253 s
          | Total time for Hartree multipole sum       :       18.093 s          18.098 s
          | Total time for total energy evaluation     :        0.010 s           0.035 s
          | Total time for scaled ZORA corrections     :       11.332 s          11.344 s

          Partial memory accounting:
          | Residual value for overall tracked memory usage across tasks :     0.000000 MB (should be 0.000000 MB)
          | Peak values for overall tracked memory usage (after allocating zora_vector2):
          |   Minimum:       40.408 MB (on task  2)
          |   Maximum:       52.322 MB (on task 43)
          |   Average:       45.421 MB
          | Largest tracked array allocation (hamiltonian_shell):
          |   Minimum:       11.790 MB (on task  1)
          |   Maximum:       11.790 MB (on task  1)
          |   Average:       11.790 MB
          Note:  These values currently only include a subset of arrays which are explicitly tracked.
          The "true" memory usage will be greater.

          Have a nice day.
------------------------------------------------------------
