  MPI-parallelism will be employed.
------------------------------------------------------------
          Invoking FHI-aims ...
          Version 180607
          Git rev. (modified): 6724847 Fix JSON memory corruption in scf_solver
          Compiled on 2018/06/27 at 16:00:31 on host coe.psc.edu.

          When using FHI-aims, please cite the following reference:

          Volker Blum, Ralf Gehrke, Felix Hanke, Paula Havu,
          Ville Havu, Xinguo Ren, Karsten Reuter, and Matthias Scheffler,
          'Ab Initio Molecular Simulations with Numeric Atom-Centered Orbitals',
          Computer Physics Communications 180, 2175-2196 (2009)

          For any questions about FHI-aims, please visit the aimsclub website
          with its forums and wiki. Contributions to both the forums and the
          wiki are warmly encouraged - they are for you, and everyone is welcome there.

------------------------------------------------------------



  Date     :  20210620, Time     :  161107.611
  Time zero on CPU 1             :   0.290143000000000E+00  s.
  Internal wall clock time zero  :           393437467.611  s.

  FHI-aims created a unique identifier for this run for later identification
  aims_uuid : D98F3055-D07E-48EE-A34B-8BF2610A2D8B

  Using       56 parallel tasks.
  Task        0 on host d030 reporting.
  Task        1 on host d030 reporting.
  Task        2 on host d030 reporting.
  Task        3 on host d030 reporting.
  Task        4 on host d030 reporting.
  Task        5 on host d030 reporting.
  Task        6 on host d030 reporting.
  Task        7 on host d030 reporting.
  Task        8 on host d030 reporting.
  Task        9 on host d030 reporting.
  Task       10 on host d030 reporting.
  Task       11 on host d030 reporting.
  Task       12 on host d030 reporting.
  Task       13 on host d030 reporting.
  Task       14 on host d030 reporting.
  Task       15 on host d030 reporting.
  Task       16 on host d030 reporting.
  Task       17 on host d030 reporting.
  Task       18 on host d030 reporting.
  Task       19 on host d030 reporting.
  Task       20 on host d030 reporting.
  Task       21 on host d030 reporting.
  Task       22 on host d030 reporting.
  Task       23 on host d030 reporting.
  Task       24 on host d030 reporting.
  Task       25 on host d030 reporting.
  Task       26 on host d030 reporting.
  Task       27 on host d030 reporting.
  Task       28 on host d030 reporting.
  Task       29 on host d030 reporting.
  Task       30 on host d030 reporting.
  Task       31 on host d030 reporting.
  Task       32 on host d030 reporting.
  Task       33 on host d030 reporting.
  Task       34 on host d030 reporting.
  Task       35 on host d030 reporting.
  Task       36 on host d030 reporting.
  Task       37 on host d030 reporting.
  Task       38 on host d030 reporting.
  Task       39 on host d030 reporting.
  Task       40 on host d030 reporting.
  Task       41 on host d030 reporting.
  Task       42 on host d030 reporting.
  Task       43 on host d030 reporting.
  Task       44 on host d030 reporting.
  Task       45 on host d030 reporting.
  Task       46 on host d030 reporting.
  Task       47 on host d030 reporting.
  Task       48 on host d030 reporting.
  Task       49 on host d030 reporting.
  Task       50 on host d030 reporting.
  Task       51 on host d030 reporting.
  Task       52 on host d030 reporting.
  Task       53 on host d030 reporting.
  Task       54 on host d030 reporting.
  Task       55 on host d030 reporting.

  Performing system and environment tests:
  *** Environment variable OMP_NUM_THREADS is not set
  *** For performance reasons you might want to set it to 1
  | Stacksize not measured: no C compiler
  | Checking for scalapack...
  | Testing pdtran()...
  | All pdtran() tests passed.

  Obtaining array dimensions for all initial allocations:
  
  -----------------------------------------------------------------------
  Parsing control.in (first pass over file, find array dimensions only).
  The contents of control.in will be repeated verbatim below
  unless switched off by setting 'verbatim_writeout .false.' .
  in the first line of control.in .
  -----------------------------------------------------------------------
  
  #===============================================================================
  # FHI-aims file: ./Runs/es/control.in
  # Created using the Atomic Simulation Environment (ASE)
  # Mon Jan 13 16:04:38 2020
  #===============================================================================
  xc                                 pbe
  relativistic                       zora scalar 1e-12
  occupation_type                    gaussian 0.0001
  load_balancing                     .true.
  KS_method                          scalapack_fast
  mixer                              pulay
  n_max_pulay                        5
  charge_mix_param                   0.4
  sc_accuracy_etot                   1e-6
  sc_accuracy_eev                    1e-4
  sc_accuracy_rho                    1e-6
  sc_iter_limit                      100
  prodbas_threshold                  1e-4
  basis_threshold                    1e-5
  override_illconditioning           .true.
  use_logsbt                         .true.
  spin                               none
  charge                             0
  #===============================================================================
  
  ################################################################################
  #
  #  FHI-aims code project
  # Volker Blum, Fritz Haber Institute Berlin, 2009
  #
  #  Suggested "tight" defaults for H atom (to be pasted into control.in file)
  #
  ################################################################################
    species        H
  #     global species definitions
      nucleus             1
      mass                1.00794
  #
      l_hartree           6
  #
      cut_pot             4.0  2.0  1.0
      basis_dep_cutoff    1e-4
  #
      radial_base         24 7.0
      radial_multiplier   2
      angular_grids       specified
        division   0.1930   50
        division   0.3175  110
        division   0.4293  194
        division   0.5066  302
        division   0.5626  434
  #      division   0.5922  590
  #      division   0.6227  974
  #      division   0.6868 1202
  #      outer_grid  770
        outer_grid  434
  ################################################################################
  #
  #  Definition of "minimal" basis
  #
  ################################################################################
  #     valence basis states
      valence      1  s   1.
  #     ion occupancy
      ion_occ      1  s   0.5
  ################################################################################
  #
  #  Suggested additional basis functions. For production calculations,
  #  uncomment them one after another (the most important basis functions are
  #  listed first).
  #
  #  Basis constructed for dimers: 0.5 A, 0.7 A, 1.0 A, 1.5 A, 2.5 A
  #
  ################################################################################
  #  "First tier" - improvements: -1014.90 meV to -62.69 meV
       hydro 2 s 2.1
       hydro 2 p 3.5
  #  "Second tier" - improvements: -12.89 meV to -1.83 meV
       hydro 1 s 0.85
       hydro 2 p 3.7
       hydro 2 s 1.2
       hydro 3 d 7
  #  "Third tier" - improvements: -0.25 meV to -0.12 meV
  #     hydro 4 f 11.2
  #     hydro 3 p 4.8
  #     hydro 4 d 9
  #     hydro 3 s 3.2
  ################################################################################
  #
  # For methods that use the localized form of the "resolution of identity" for
  # the two-electron Coulomb operator (RI_method LVL), particularly Hartree-Fock and
  # hybrid density functional calculations, the highest accuracy can be obtained by
  # uncommenting the line beginning with "for_aux"  below, thus adding an extra g radial
  # function to the construction of the product basis set for the expansion.
  # See Ref. New J. Phys. 17, 093020 (2015) for more information, particularly Figs. 1 and 6.
  #
  ################################################################################
  #
  # for_aux hydro 5 g 6.0
  ################################################################################
  #
  #  FHI-aims code project
  # Volker Blum, Fritz Haber Institute Berlin, 2009
  #
  #  Suggested "tight" defaults for C atom (to be pasted into control.in file)
  #
  ################################################################################
    species        C
  #     global species definitions
      nucleus             6
      mass                12.0107
  #
      l_hartree           6
  #
      cut_pot             4.0  2.0  1.0
      basis_dep_cutoff    1e-4
  #
      radial_base         34 7.0
      radial_multiplier   2
      angular_grids specified
        division   0.2187   50
        division   0.4416  110
        division   0.6335  194
        division   0.7727  302
        division   0.8772  434
  #      division   0.9334  590
  #      division   0.9924  770
  #      division   1.0230  974
  #      division   1.5020 1202
  #     outer_grid  974
        outer_grid  434
  ################################################################################
  #
  #  Definition of "minimal" basis
  #
  ################################################################################
  #     valence basis states
      valence      2  s   2.
      valence      2  p   2.
  #     ion occupancy
      ion_occ      2  s   1.
      ion_occ      2  p   1.
  ################################################################################
  #
  #  Suggested additional basis functions. For production calculations,
  #  uncomment them one after another (the most important basis functions are
  #  listed first).
  #
  #  Constructed for dimers: 1.0 A, 1.25 A, 1.5 A, 2.0 A, 3.0 A
  #
  ################################################################################
  #  "First tier" - improvements: -1214.57 meV to -155.61 meV
       hydro 2 p 1.7
       hydro 3 d 6
       hydro 2 s 4.9
  #  "Second tier" - improvements: -67.75 meV to -5.23 meV
       hydro 4 f 9.8
       hydro 3 p 5.2
       hydro 3 s 4.3
       hydro 5 g 14.4
       hydro 3 d 6.2
  #  "Third tier" - improvements: -2.43 meV to -0.60 meV
  #     hydro 2 p 5.6
  #     hydro 2 s 1.4
  #     hydro 3 d 4.9
  #     hydro 4 f 11.2
  #  "Fourth tier" - improvements: -0.39 meV to -0.18 meV
  #     hydro 2 p 2.1
  #     hydro 5 g 16.4
  #     hydro 4 d 13.2
  #     hydro 3 s 13.6
  #     hydro 4 f 17.6
  #  Further basis functions - improvements: -0.08 meV and below
  #     hydro 3 s 2
  #     hydro 3 p 6
  #     hydro 4 d 20
  ################################################################################
  #
  # For methods that use the localized form of the "resolution of identity" for
  # the two-electron Coulomb operator (RI_method LVL), particularly Hartree-Fock and
  # hybrid density functional calculations, the highest accuracy can be obtained by
  # uncommenting the line beginning with "for_aux"  below, thus adding an extra g radial
  # function to the construction of the product basis set for the expansion.
  # See Ref. New J. Phys. 17, 093020 (2015) for more information, particularly Figs. 1 and 6.
  #
  ################################################################################
  #
  # for_aux hydro 5 g 6.0
  
  -----------------------------------------------------------------------
  Completed first pass over input file control.in .
  -----------------------------------------------------------------------
  
  
  -----------------------------------------------------------------------
  Parsing geometry.in (first pass over file, find array dimensions only).
  The contents of geometry.in will be repeated verbatim below
  unless switched off by setting 'verbatim_writeout .false.' .
  in the first line of geometry.in .
  -----------------------------------------------------------------------
  
  #=======================================================
  # FHI-aims file: geometry.in
  # Created using the Atomic Simulation Environment (ASE)
  # Sun Jun 20 15:47:01 2021
  #=======================================================
  atom 19.6690369999999994 28.9570690000000006 28.8239690000000017 H
  atom 18.6384639999999990 28.6026080000000000 28.8030599999999986 C
  atom 18.1819549999999985 27.7726730000000011 29.8069200000000016 C
  atom 17.8206050000000005 29.0059840000000015 27.7386119999999998 C
  atom 16.8350510000000000 27.3020679999999984 29.7962279999999993 C
  atom 18.8370989999999985 27.4773280000000000 30.6273529999999994 H
  atom 16.4869260000000004 28.5527650000000008 27.6922800000000002 C
  atom 18.2836900000000000 29.8382369999999995 26.7204960000000007 C
  atom 16.3438039999999987 26.4663369999999993 30.8024640000000005 C
  atom 15.9757040000000003 27.6984889999999986 28.7294039999999988 C
  atom 15.6327479999999994 28.9410729999999994 26.6551560000000016 C
  atom 17.4469169999999991 30.2358170000000008 25.6655520000000017 C
  atom 19.3185639999999985 30.1837720000000012 26.7560169999999999 H
  atom 15.0093099999999993 26.0119599999999984 30.7715759999999996 C
  atom 16.9937639999999988 26.1811919999999994 31.6271740000000001 H
  atom 14.6356219999999997 27.2417930000000013 28.6997040000000005 C
  atom 14.2344659999999994 28.4635129999999990 26.6242680000000007 C
  atom 16.1153890000000004 29.7814399999999999 25.6322879999999991 C
  atom 17.8138800000000010 30.8893330000000006 24.8760070000000013 H
  atom 14.6366119999999995 25.3762949999999989 31.5726440000000004 H
  atom 14.1517459999999993 26.3898350000000015 29.7344520000000010 C
  atom 13.7529859999999999 27.6219870000000007 27.6400080000000017 C
  atom 13.3822659999999996 28.8518200000000000 25.5705120000000008 C
  atom 15.4827539999999999 30.1028650000000013 24.8109050000000018 H
  atom 12.7985830000000007 25.9412529999999997 29.6833680000000015 C
  atom 12.4206430000000001 27.1664500000000011 27.6150599999999997 C
  atom 12.0505650000000006 28.3986020000000003 25.5396239999999999 C
  atom 13.7312510000000003 29.4932809999999996 24.7686120000000010 H
  atom 12.4323080000000008 25.2950400000000002 30.4799219999999984 H
  atom 11.9656939999999992 26.3260830000000006 28.6486200000000011 C
  atom 11.5865410000000004 27.5593940000000011 26.5672439999999987 C
  atom 11.3890650000000004 28.7020610000000005 24.7296459999999989 H
  atom 10.9279930000000007 25.9928339999999984 28.6380470000000003 H
  atom 10.5518219999999996 27.2128149999999991 26.5634419999999984 H
  
  -----------------------------------------------------------------------
  Completed first pass over input file geometry.in .
  -----------------------------------------------------------------------
  

  Basic array size parameters:
  | Number of species                 :        2
  | Number of atoms                   :       34
  | Max. basis fn. angular momentum   :        4
  | Max. atomic/ionic basis occupied n:        2
  | Max. number of basis fn. types    :        2
  | Max. radial fns per species/type  :        8
  | Max. logarithmic grid size        :     1277
  | Max. radial integration grid size :       69
  | Max. angular integration grid size:      434
  | Max. angular grid division number :        8
  | Radial grid for Hartree potential :     1277
  | Number of spin channels           :        1

------------------------------------------------------------
          Reading file control.in.
------------------------------------------------------------
  XC: Using PBE gradient-corrected functionals.
  Scalar relativistic treatment of kinetic energy: ZORA.
  Threshold value for ZORA:   0.100000E-11
  Occupation type: Gaussian broadening, width =   0.100000E-03 eV.
  Since 'load_balancing .true.' is present in control.in, automatically turning on 'use_local_index .true.'.
  Using load balancing for integrations.
  Kohn-Sham electronic structure solved by the ELSI library.
  Using pulay charge density mixing.
  Pulay mixing - number of memorized iterations:    5
  Charge density mixing - mixing parameter:     0.4000
  Convergence accuracy of total energy:  0.1000E-05
  Convergence accuracy of sum of eigenvalues:  0.1000E-03
  Convergence accuracy of self-consistent charge density:  0.1000E-05
  Maximum number of s.-c. iterations  :   100
  * Ignoring prodbas_threshold
  Threshold for basis singularities:  0.1000E-04
  override_illconditioning: Explicitly overriding any built-in checks for an ill-conditioned overlap matrix.
  *** WARNING: If you use this flag, you should really know what you are doing.
  *** DO NOT keep this flag set by default in all your control.in files.
  Using 1D integrations for auxiliary 2-center integrals.
  Spin treatment: No spin polarisation.
  Charge =   0.000000E+00: Neutral system requested explicitly.
 
  Reading configuration options for species H                   .
  | Found nuclear charge :   1.0000
  | Found atomic mass :    1.00794000000000      amu
  | Found l_max for Hartree potential  :   6
  | Found cutoff potl. onset [A], width [A], scale factor :    4.00000    2.00000    1.00000
  | Threshold for basis-dependent cutoff potential is   0.100000E-03
  | Found data for basic radial integration grid :    24 points, outermost radius =    7.000 A
  | Found multiplier for basic radial grid :   2
  | Found angular grid specification: user-specified.
  | Specified grid contains     6 separate shells.
  | Check grid settings after all constraints further below.
  | Found free-atom valence shell :  1 s   1.000
  | No ionic wave fns used. Skipping ion_occ.
  | Found hydrogenic basis function :  2 s   2.100
  | Found hydrogenic basis function :  2 p   3.500
  | Found hydrogenic basis function :  1 s   0.850
  | Found hydrogenic basis function :  2 p   3.700
  | Found hydrogenic basis function :  2 s   1.200
  | Found hydrogenic basis function :  3 d   7.000
  Species H                   : Missing cutoff potential type.
  Defaulting to exp(1/x)/(1-x)^2 type cutoff potential.
  Species H : No 'logarithmic' tag. Using default grid for free atom:
  | Default logarithmic grid data [bohr] : 0.1000E-03 0.1000E+03 0.1012E+01
  Species H : On-site basis accuracy parameter (for Gram-Schmidt orthonormalisation) not specified.
  Using default value basis_acc =  0.1000000E-03.
  Species H                   : Using default innermost maximum threshold i_radial=  2 for radial functions.
  Species H                   : Default cutoff onset for free atom density etc. : 0.40000000E+01 AA.
  Species H                   : Basic radial grid will be enhanced according to radial_multiplier =   2, to contain    49 grid points.
 
  Reading configuration options for species C                   .
  | Found nuclear charge :   6.0000
  | Found atomic mass :    12.0107000000000      amu
  | Found l_max for Hartree potential  :   6
  | Found cutoff potl. onset [A], width [A], scale factor :    4.00000    2.00000    1.00000
  | Threshold for basis-dependent cutoff potential is   0.100000E-03
  | Found data for basic radial integration grid :    34 points, outermost radius =    7.000 A
  | Found multiplier for basic radial grid :   2
  | Found angular grid specification: user-specified.
  | Specified grid contains     6 separate shells.
  | Check grid settings after all constraints further below.
  | Found free-atom valence shell :  2 s   2.000
  | Found free-atom valence shell :  2 p   2.000
  | No ionic wave fns used. Skipping ion_occ.
  | No ionic wave fns used. Skipping ion_occ.
  | Found hydrogenic basis function :  2 p   1.700
  | Found hydrogenic basis function :  3 d   6.000
  | Found hydrogenic basis function :  2 s   4.900
  | Found hydrogenic basis function :  4 f   9.800
  | Found hydrogenic basis function :  3 p   5.200
  | Found hydrogenic basis function :  3 s   4.300
  | Found hydrogenic basis function :  5 g  14.400
  | Found hydrogenic basis function :  3 d   6.200
  Species C                   : Missing cutoff potential type.
  Defaulting to exp(1/x)/(1-x)^2 type cutoff potential.
  Species C : No 'logarithmic' tag. Using default grid for free atom:
  | Default logarithmic grid data [bohr] : 0.1000E-03 0.1000E+03 0.1012E+01
  Species C : On-site basis accuracy parameter (for Gram-Schmidt orthonormalisation) not specified.
  Using default value basis_acc =  0.1000000E-03.
  Species C                   : Using default innermost maximum threshold i_radial=  2 for radial functions.
  Species C                   : Default cutoff onset for free atom density etc. : 0.40000000E+01 AA.
  Species C                   : Basic radial grid will be enhanced according to radial_multiplier =   2, to contain    69 grid points.
 
  Finished reading input file 'control.in'. Consistency checks are next.
 
  MPI_IN_PLACE appears to work with this MPI implementation.
  | Keeping use_mpi_in_place .true. (see manual).
  Target number of points in a grid batch is not set. Defaulting to  100
  Method for grid partitioning is not set. Defaulting to parallel hash+maxmin partitioning.
  Batch size limit is not set. Defaulting to    200
  By default, will store active basis functions for each batch.
  If in need of memory, prune_basis_once .false. can be used to disable this option.
  communication_type for Hartree potential was not specified.
  Defaulting to calc_hartree .
  Pulay mixer: Number of initial linear mixing iterations not set.
  Defaulting to    0 iterations.
  Work space size for distributed Hartree potential not set.
  Defaulting to   0.200000E+03 MB.
  Algorithm-dependent basis array size parameters:
  | n_max_pulay                         :        5
  Presetting      1001 iterations before the initial mixing cycle
  is restarted anyway using the sc_init_iter criterion / keyword.
  Presetting a factor      1.000 between actual scf density residual
  and density convergence criterion sc_accuracy_rho below which sc_init_iter
  takes no effect.
  Calculation of forces was not defined in control.in. No forces will be calculated.
  Geometry relaxation not requested: no relaxation will be performed.
  No accuracy limit for integral partition fn. given. Defaulting to  0.1000E-14.
  No threshold value for u(r) in integrations given. Defaulting to  0.1000E-05.
  No accuracy for occupation numbers given. Defaulting to  0.1000E-12.
  No threshold value for occupation numbers given. Defaulting to  0.0000E+00.
  No accuracy for fermi level given. Defaulting to  0.1000E-19.
  Maximum # of iterations to find E_F not set. Defaulting to  200.
  Will not use alltoall communication since running on < 1024 CPUs.
  partition_type (choice of integration weights) for integrals was not specified.
  | Using a version of the partition function of Stratmann and coworkers ('stratmann_sparse').
  | At each grid point, the set of atoms used to build the partition table is smoothly restricted to
  | only those atoms whose free-atom density would be non-zero at that grid point.
  Partitioning for Hartree potential was not defined. Using partition_type for integrals.
  | Adjusted default value of keyword multip_moments_threshold to:       0.10000000E-11
  | This value may affect high angular momentum components of the Hartree potential in periodic systems.
  No q(lm)/r^(l+1) cutoff set for long-range Hartree potential.
  | Using default value of  0.100000E-09 .
  | Verify using the multipole_threshold keyword.
  Defaulting to new monopole extrapolation.
  Density update method: automatic selection selected.
 * Warning: use_local_index and/or load_balancing needs packed_matrix_format = index
 * Changing the default setting to packed_matrix_format = index
------------------------------------------------------------


------------------------------------------------------------
          Reading geometry description geometry.in.
------------------------------------------------------------
  Input structure read successfully.
  The structure contains       34 atoms,  and a total of        144.000 electrons.

  Input geometry:
  | No unit cell requested.
  | Atomic structure:
  |       Atom                x [A]            y [A]            z [A]
  |    1: Species H            19.66903700       28.95706900       28.82396900
  |    2: Species C            18.63846400       28.60260800       28.80306000
  |    3: Species C            18.18195500       27.77267300       29.80692000
  |    4: Species C            17.82060500       29.00598400       27.73861200
  |    5: Species C            16.83505100       27.30206800       29.79622800
  |    6: Species H            18.83709900       27.47732800       30.62735300
  |    7: Species C            16.48692600       28.55276500       27.69228000
  |    8: Species C            18.28369000       29.83823700       26.72049600
  |    9: Species C            16.34380400       26.46633700       30.80246400
  |   10: Species C            15.97570400       27.69848900       28.72940400
  |   11: Species C            15.63274800       28.94107300       26.65515600
  |   12: Species C            17.44691700       30.23581700       25.66555200
  |   13: Species H            19.31856400       30.18377200       26.75601700
  |   14: Species C            15.00931000       26.01196000       30.77157600
  |   15: Species H            16.99376400       26.18119200       31.62717400
  |   16: Species C            14.63562200       27.24179300       28.69970400
  |   17: Species C            14.23446600       28.46351300       26.62426800
  |   18: Species C            16.11538900       29.78144000       25.63228800
  |   19: Species H            17.81388000       30.88933300       24.87600700
  |   20: Species H            14.63661200       25.37629500       31.57264400
  |   21: Species C            14.15174600       26.38983500       29.73445200
  |   22: Species C            13.75298600       27.62198700       27.64000800
  |   23: Species C            13.38226600       28.85182000       25.57051200
  |   24: Species H            15.48275400       30.10286500       24.81090500
  |   25: Species C            12.79858300       25.94125300       29.68336800
  |   26: Species C            12.42064300       27.16645000       27.61506000
  |   27: Species C            12.05056500       28.39860200       25.53962400
  |   28: Species H            13.73125100       29.49328100       24.76861200
  |   29: Species H            12.43230800       25.29504000       30.47992200
  |   30: Species C            11.96569400       26.32608300       28.64862000
  |   31: Species C            11.58654100       27.55939400       26.56724400
  |   32: Species H            11.38906500       28.70206100       24.72964600
  |   33: Species H            10.92799300       25.99283400       28.63804700
  |   34: Species H            10.55182200       27.21281500       26.56344200
  |

  | The smallest distance between any two atoms is         1.08457658 AA.
  |
  | The first atom of this pair is atom number                     23 .
  | The second atom of this pair is atom number                    28 .

  Number of empty states per atom not set in control.in - providing a guess from actual geometry.
  | Total number of empty states used during s.c.f. cycle:       84
  If you use a very high smearing, use empty_states (per atom!) in control.in to increase this value.

  Structure-dependent array size parameters: 
  | Maximum number of distinct radial functions  :       18
  | Maximum number of basis functions            :     1038
  | Number of Kohn-Sham states (occupied + empty):      156
------------------------------------------------------------

------------------------------------------------------------
          Preparing all fixed parts of the calculation.
------------------------------------------------------------
  Determining machine precision:
    2.225073858507201E-308
  Setting up grids for atomic and cluster calculations.

  Creating wave function, potential, and density for free atoms.

  Species: H

  List of occupied orbitals and eigenvalues:
    n    l              occ      energy [Ha]    energy [eV]
    1    0           1.0000        -0.238386        -6.4868


  Species: C

  List of occupied orbitals and eigenvalues:
    n    l              occ      energy [Ha]    energy [eV]
    1    0           2.0000       -10.049212      -273.4530
    2    0           2.0000        -0.504761       -13.7352
    2    1           2.0000        -0.193631        -5.2690

  Creating fixed part of basis set: Ionic, confined, hydrogenic.
 
  H                    hydrogenic:
 
  List of hydrogenic basis orbitals: 
    n    l      effective z      eigenvalue [eV]  inner max. [A]     outer max. [A]     outer radius [A]   
    2    0         2.100000       -14.9965           0.193243           1.317208           5.373006
    2    1         3.500000       -41.6672           0.602369           0.602369           4.056063
    1    0         0.850000        -9.8292           0.624871           0.624871           5.373006
    2    1         3.700000       -46.5653           0.573622           0.573622           3.910002
    2    0         1.200000        -4.5995           0.334980           2.228188           5.505995
    3    2         7.000000       -74.0753           0.680699           0.680699           3.769201
 
 
  C                    hydrogenic:
 
  List of hydrogenic basis orbitals: 
    n    l      effective z      eigenvalue [eV]  inner max. [A]     outer max. [A]     outer radius [A]   
    2    1         1.700000        -9.8152           1.245706           1.245706           5.401630
    3    2         6.000000       -54.4226           0.792453           0.792453           4.178599
    2    0         4.900000       -81.6681           0.082559           0.562749           3.353238
    4    3         9.800000       -81.6681           0.863254           0.863254           4.028125
    3    1         5.200000       -40.8774           0.305389           1.215618           4.898362
    3    0         4.300000       -27.9508           0.091041           1.610311           5.401630
    5    4        14.400000      -112.8510           0.917666           0.917666           3.883070
    3    2         6.200000       -58.1113           0.763917           0.763917           4.077671
 

  Adding cutoff potential to free-atom effective potential.
  Creating atomic-like basis functions for current effective potential.

  Species H                   :

  List of atomic basis orbitals and eigenvalues:
    n    l      energy [Ha]    energy [eV]    outer radius [A]
    1    0        -0.238386        -6.4868       5.373006


  Species C                   :

  List of atomic basis orbitals and eigenvalues:
    n    l      energy [Ha]    energy [eV]    outer radius [A]
    1    0       -10.049212      -273.4530       1.934409
    2    0        -0.504761       -13.7352       5.271162
    2    1        -0.193631        -5.2690       5.401630

  Assembling full basis from fixed parts.
  | Species H :   atomic orbital   1 s accepted.
  | Species H :    hydro orbital   2 s accepted.
  | Species H :    hydro orbital   1 s accepted.
  | Species H :    hydro orbital   2 s accepted.
  | Species H :    hydro orbital   2 p accepted.
  | Species H :    hydro orbital   2 p accepted.
  | Species H :    hydro orbital   3 d accepted.
  | Species C :   atomic orbital   1 s accepted.
  | Species C :    hydro orbital   2 s accepted.
  | Species C :   atomic orbital   2 s accepted.
  | Species C :    hydro orbital   3 s accepted.
  | Species C :    hydro orbital   3 p accepted.
  | Species C :   atomic orbital   2 p accepted.
  | Species C :    hydro orbital   2 p accepted.
  | Species C :    hydro orbital   3 d accepted.
  | Species C :    hydro orbital   3 d accepted.
  | Species C :    hydro orbital   4 f accepted.
  | Species C :    hydro orbital   5 g accepted.
 
  Basis size parameters after reduction:
  | Total number of radial functions:       18
  | Total number of basis functions :     1038
 
  Per-task memory consumption for arrays in subroutine allocate_ext:
  |           4.437936MB.
  Testing on-site integration grid accuracy.
  |  Species  Function  <phi|h_atom|phi> (log., in eV)  <phi|h_atom|phi> (rad., in eV)
           1        1                 -6.4870767962                 -6.4871688290
           1        2                 13.5032046589                 13.5028982997
           1        3                 32.8195184817                 32.8119941656
           1        4                 33.8513856511                 33.7670005767 ***
           1        5                 28.8544614965                 28.8544615203
           1        6                 59.6326952547                 59.6327656460
           1        7                 60.2719308513                 60.2719305949
           2        8               -273.4529726040               -273.4529710464
           2        9                -10.7721037319                -10.7721022101
           2       10                 17.6044132601                 17.6044162063
           2       11                 53.7706460658                 53.7706913770
           2       12                 15.0973290362                 15.0973256030
           2       13                  3.8545134692                  3.8545724687
           2       14                 12.1156992592                 12.1182024431
           2       15                 29.4352039302                 29.4352041816
           2       16                 54.8741144708                 54.8740268729
           2       17                 59.3556032049                 59.3556031382
           2       18                 93.4551837154                 93.4551838009
 * Note: Onsite integrals marked "***" above are less accurate than
 * onsite_accuracy_threshold =    0.03000 eV. Usually, this is harmless.
 * When in doubt, tighten the "radial" and/or "radial_multiplier" flags to check.

  Preparing densities etc. for the partition functions (integrals / Hartree potential).

  Preparations completed.
  max(cpu_time)          :      0.186 s.
  Wall clock time (cpu1) :      0.173 s.
------------------------------------------------------------

------------------------------------------------------------
          Begin self-consistency loop: Initialization.

          Date     :  20210620, Time     :  161107.975
------------------------------------------------------------

  Initializing index lists of integration centers etc. from given atomic structure:
  | Number of centers in hartree potential         :        34
  | Number of centers in hartree multipole         :        34
  | Number of centers in electron density summation:        34
  | Number of centers in basis integrals           :        34
  | Number of centers in integrals                 :        34
  | Number of centers in hamiltonian               :        34
  * Using 56 tasks for Scalapack Eigenvalue solver.
  Detailed listing of tasks and assigned k-points:
  (for non-periodic systems, the "k-point" denotes an internal label only)
   Task     0 k-point     1 on d030
   Task     1 k-point     1 on d030
   Task     2 k-point     1 on d030
   Task     3 k-point     1 on d030
   Task     4 k-point     1 on d030
   Task     5 k-point     1 on d030
   Task     6 k-point     1 on d030
   Task     7 k-point     1 on d030
   Task     8 k-point     1 on d030
   Task     9 k-point     1 on d030
   Task    10 k-point     1 on d030
   Task    11 k-point     1 on d030
   Task    12 k-point     1 on d030
   Task    13 k-point     1 on d030
   Task    14 k-point     1 on d030
   Task    15 k-point     1 on d030
   Task    16 k-point     1 on d030
   Task    17 k-point     1 on d030
   Task    18 k-point     1 on d030
   Task    19 k-point     1 on d030
   Task    20 k-point     1 on d030
   Task    21 k-point     1 on d030
   Task    22 k-point     1 on d030
   Task    23 k-point     1 on d030
   Task    24 k-point     1 on d030
   Task    25 k-point     1 on d030
   Task    26 k-point     1 on d030
   Task    27 k-point     1 on d030
   Task    28 k-point     1 on d030
   Task    29 k-point     1 on d030
   Task    30 k-point     1 on d030
   Task    31 k-point     1 on d030
   Task    32 k-point     1 on d030
   Task    33 k-point     1 on d030
   Task    34 k-point     1 on d030
   Task    35 k-point     1 on d030
   Task    36 k-point     1 on d030
   Task    37 k-point     1 on d030
   Task    38 k-point     1 on d030
   Task    39 k-point     1 on d030
   Task    40 k-point     1 on d030
   Task    41 k-point     1 on d030
   Task    42 k-point     1 on d030
   Task    43 k-point     1 on d030
   Task    44 k-point     1 on d030
   Task    45 k-point     1 on d030
   Task    46 k-point     1 on d030
   Task    47 k-point     1 on d030
   Task    48 k-point     1 on d030
   Task    49 k-point     1 on d030
   Task    50 k-point     1 on d030
   Task    51 k-point     1 on d030
   Task    52 k-point     1 on d030
   Task    53 k-point     1 on d030
   Task    54 k-point     1 on d030
   Task    55 k-point     1 on d030
  Tasks:    56 split into      8 X      7 BLACS grid
  Calculating block size based on n_basis =         1038 max_nprow =            8 max_npcol =            7
  ScaLAPACK block size set to:           16
  Allocating        0.182 MB for ovlp
  Allocating        0.182 MB for ham
  Allocating        0.182 MB for eigenvec
  Required Scalapack workspace - INTEGER:            1 REAL:             1
  Partitioning the integration grid into batches with parallel hashing+maxmin method.
  | Number of batches:     5204
  | Maximal batch size:     200
  | Minimal batch size:       6
  | Average batch size:     109.746
  | Standard deviation of batch sizes:      29.167

  Integration load balanced across     56 MPI tasks.
  Work distribution over tasks is as follows:
  Task      0 has      10272 integration points.
  Task      1 has      10221 integration points.
  Task      2 has      10146 integration points.
  Task      3 has      10301 integration points.
  Task      4 has      10180 integration points.
  Task      5 has      10226 integration points.
  Task      6 has      10130 integration points.
  Task      7 has      10276 integration points.
  Task      8 has      10260 integration points.
  Task      9 has      10099 integration points.
  Task     10 has      10267 integration points.
  Task     11 has      10128 integration points.
  Task     12 has      10254 integration points.
  Task     13 has      10067 integration points.
  Task     14 has      10364 integration points.
  Task     15 has      10323 integration points.
  Task     16 has      10091 integration points.
  Task     17 has      10229 integration points.
  Task     18 has      10156 integration points.
  Task     19 has      10198 integration points.
  Task     20 has      10059 integration points.
  Task     21 has      10316 integration points.
  Task     22 has      10268 integration points.
  Task     23 has      10046 integration points.
  Task     24 has      10266 integration points.
  Task     25 has      10161 integration points.
  Task     26 has      10184 integration points.
  Task     27 has      10106 integration points.
  Task     28 has      10270 integration points.
  Task     29 has      10184 integration points.
  Task     30 has      10171 integration points.
  Task     31 has      10229 integration points.
  Task     32 has      10220 integration points.
  Task     33 has      10241 integration points.
  Task     34 has      10129 integration points.
  Task     35 has      10314 integration points.
  Task     36 has      10246 integration points.
  Task     37 has      10157 integration points.
  Task     38 has      10330 integration points.
  Task     39 has      10120 integration points.
  Task     40 has      10233 integration points.
  Task     41 has       9995 integration points.
  Task     42 has      10206 integration points.
  Task     43 has      10298 integration points.
  Task     44 has      10106 integration points.
  Task     45 has      10283 integration points.
  Task     46 has      10167 integration points.
  Task     47 has      10206 integration points.
  Task     48 has      10095 integration points.
  Task     49 has      10221 integration points.
  Task     50 has      10184 integration points.
  Task     51 has      10183 integration points.
  Task     52 has      10318 integration points.
  Task     53 has      10201 integration points.
  Task     54 has      10158 integration points.
  Task     55 has      10057 integration points.
  Initializing partition tables, free-atom densities, potentials, etc. across the integration grid (initialize_grid_storage).
  | initialize_grid_storage: Actual outermost partition radius vs. multipole_radius_free
  | (-- VB: in principle, multipole_radius_free should be larger, hence this output)
  | Species        1: Confinement radius =              6.000000000000000 AA, multipole_radius_free =              6.071692442739658 AA.
  | Species        1: outer_partition_radius set to              6.071692442739658 AA .
  | Species        2: Confinement radius =              6.000000000000000 AA, multipole_radius_free =              6.029870734432609 AA.
  | Species        2: outer_partition_radius set to              6.029870734432609 AA .
  | The sparse table of interatomic distances needs     13.6040 kbyte instead of     9.2480 kbyte of memory.
  | Using the partition_type stratmann_smoother will reduce your memory usage.
  | Net number of integration points:   571116
  | of which are non-zero points    :   460672
  Renormalizing the initial density to the exact electron count on the 3D integration grid.
  | Initial density: Formal number of electrons (from input files) :     144.0000000000
  | Integrated number of electrons on 3D grid     :     143.9998406409
  | Charge integration error                      :      -0.0001593591
  | Normalization factor for density and gradient :       1.0000011067
  Obtaining max. number of non-zero basis functions in each batch (get_n_compute_maxes).
  | Maximal number of non-zero basis functions:      938
  Selecting the method for density update.
  Loop over occupied states selected for charge density update.
  Hamiltonian matrix size:
  | Size of matrix non-packed:                539241
  | Size of matrix packed:          531019
  Allocating        1.295 MB for KS_eigenvector
  use_local_index: Max. local matrix size =       509352
  Task:     0 matrix size:     121771
  Task:     1 matrix size:     173746
  Task:     2 matrix size:     169071
  Task:     3 matrix size:     359632
  Task:     4 matrix size:     385092
  Task:     5 matrix size:     472179
  Task:     6 matrix size:     473031
  Task:     7 matrix size:     113526
  Task:     8 matrix size:     158766
  Task:     9 matrix size:     255183
  Task:    10 matrix size:     279645
  Task:    11 matrix size:     465991
  Task:    12 matrix size:     402963
  Task:    13 matrix size:     349447
  Task:    14 matrix size:     195551
  Task:    15 matrix size:     191271
  Task:    16 matrix size:     129795
  Task:    17 matrix size:     318995
  Task:    18 matrix size:     386675
  Task:    19 matrix size:     157056
  Task:    20 matrix size:     210096
  Task:    21 matrix size:     336989
  Task:    22 matrix size:     310669
  Task:    23 matrix size:     275518
  Task:    24 matrix size:     467761
  Task:    25 matrix size:     357099
  Task:    26 matrix size:     509352
  Task:    27 matrix size:     480671
  Task:    28 matrix size:     409979
  Task:    29 matrix size:     333048
  Task:    30 matrix size:     280683
  Task:    31 matrix size:     500170
  Task:    32 matrix size:     468289
  Task:    33 matrix size:     332104
  Task:    34 matrix size:     289816
  Task:    35 matrix size:     382432
  Task:    36 matrix size:     178387
  Task:    37 matrix size:     326970
  Task:    38 matrix size:     101475
  Task:    39 matrix size:     140715
  Task:    40 matrix size:     232188
  Task:    41 matrix size:     132355
  Task:    42 matrix size:     443470
  Task:    43 matrix size:     377650
  Task:    44 matrix size:     270345
  Task:    45 matrix size:     211554
  Task:    46 matrix size:     274035
  Task:    47 matrix size:     191251
  Task:    48 matrix size:     140715
  Task:    49 matrix size:     470285
  Task:    50 matrix size:     490716
  Task:    51 matrix size:     445162
  Task:    52 matrix size:     268851
  Task:    53 matrix size:     148171
  Task:    54 matrix size:     212799
  Task:    55 matrix size:     168997
  Integrating Hamiltonian matrix: batch-based integration.
  Time summed over all CPUs for integration: real work       90.053 s, elapsed      168.171 s
  Time get_set_sparse_local_matrix_scalapack:     0.011537 s
  Start compute_balanced_batch_distribution
  Done load balancing, time needed:      0.006 s
  Integrating overlap matrix with loadbalancing
  Time summed over all CPUs for integration: real work       25.002 s, elapsed       29.120 s
  Time get_set_full_local_matrix_scalapack:     0.011789 s

  Updating Kohn-Sham eigenvalues and eigenvectors using ELSI and the ELPA eigensolver.
  Overlap matrix is not singular
  | Lowest and highest eigenvalues :  0.11E+02,  0.89E-04
  Finished singularity check of overlap matrix
  | Time :     0.055 s
  Finished Cholesky decomposition
  | Time :     0.012 s
  Finished transformation to standard eigenproblem
  | Time :     0.007 s
  Starting ELPA eigensolver
  Finished solving standard eigenproblem
  | Time :     0.052 s
  Finished back-transformation of eigenvectors
  | Time :     0.002 s

  Obtaining occupation numbers and chemical potential using ELSI.
  | Chemical potential (Fermi level):    -8.45080349 eV
  Writing Kohn-Sham eigenvalues.

  State    Occupation    Eigenvalue [Ha]    Eigenvalue [eV]
      1       2.00000         -10.173528         -276.83579
      2       2.00000         -10.172559         -276.80941
      3       2.00000         -10.170707         -276.75903
      4       2.00000         -10.169384         -276.72303
      5       2.00000         -10.168655         -276.70319
      6       2.00000         -10.168457         -276.69778
      7       2.00000         -10.168066         -276.68715
      8       2.00000         -10.167632         -276.67535
      9       2.00000         -10.167367         -276.66814
     10       2.00000         -10.167294         -276.66615
     11       2.00000         -10.167016         -276.65859
     12       2.00000         -10.166859         -276.65430
     13       2.00000         -10.166747         -276.65125
     14       2.00000         -10.166630         -276.64809
     15       2.00000         -10.166420         -276.64236
     16       2.00000         -10.166386         -276.64144
     17       2.00000         -10.165991         -276.63069
     18       2.00000         -10.165770         -276.62469
     19       2.00000         -10.164639         -276.59390
     20       2.00000         -10.163564         -276.56465
     21       2.00000         -10.163209         -276.55500
     22       2.00000         -10.162308         -276.53046
     23       2.00000          -1.024686          -27.88313
     24       2.00000          -0.998957          -27.18299
     25       2.00000          -0.982873          -26.74534
     26       2.00000          -0.948253          -25.80327
     27       2.00000          -0.942300          -25.64128
     28       2.00000          -0.920971          -25.06091
     29       2.00000          -0.890238          -24.22461
     30       2.00000          -0.883913          -24.05248
     31       2.00000          -0.876275          -23.84465
     32       2.00000          -0.855597          -23.28199
     33       2.00000          -0.838924          -22.82829
     34       2.00000          -0.784305          -21.34202
     35       2.00000          -0.776424          -21.12758
     36       2.00000          -0.769137          -20.92928
     37       2.00000          -0.764378          -20.79979
     38       2.00000          -0.749053          -20.38278
     39       2.00000          -0.699204          -19.02630
     40       2.00000          -0.689309          -18.75706
     41       2.00000          -0.682074          -18.56018
     42       2.00000          -0.675499          -18.38125
     43       2.00000          -0.667304          -18.15827
     44       2.00000          -0.633932          -17.25016
     45       2.00000          -0.624490          -16.99325
     46       2.00000          -0.614668          -16.72596
     47       2.00000          -0.606395          -16.50084
     48       2.00000          -0.605652          -16.48064
     49       2.00000          -0.594963          -16.18977
     50       2.00000          -0.577735          -15.72098
     51       2.00000          -0.569827          -15.50579
     52       2.00000          -0.567218          -15.43479
     53       2.00000          -0.563129          -15.32351
     54       2.00000          -0.553505          -15.06163
     55       2.00000          -0.544641          -14.82045
     56       2.00000          -0.525503          -14.29966
     57       2.00000          -0.525020          -14.28651
     58       2.00000          -0.524596          -14.27500
     59       2.00000          -0.514475          -13.99957
     60       2.00000          -0.513549          -13.97439
     61       2.00000          -0.511521          -13.91920
     62       2.00000          -0.497518          -13.53816
     63       2.00000          -0.484842          -13.19321
     64       2.00000          -0.482221          -13.12191
     65       2.00000          -0.458392          -12.47349
     66       2.00000          -0.456482          -12.42150
     67       2.00000          -0.432036          -11.75629
     68       2.00000          -0.406856          -11.07112
     69       2.00000          -0.397380          -10.81326
     70       2.00000          -0.395910          -10.77325
     71       2.00000          -0.368727          -10.03356
     72       2.00000          -0.347957           -9.46840
     73       0.00000          -0.261272           -7.10957
     74       0.00000          -0.240326           -6.53961
     75       0.00000          -0.215921           -5.87552
     76       0.00000          -0.208532           -5.67444
     77       0.00000          -0.205925           -5.60350
     78       0.00000          -0.164577           -4.47836
     79       0.00000          -0.137118           -3.73118
     80       0.00000          -0.131220           -3.57068
     81       0.00000          -0.071292           -1.93996
     82       0.00000          -0.067255           -1.83010
     83       0.00000          -0.062042           -1.68826
     84       0.00000          -0.058313           -1.58678
     85       0.00000          -0.047780           -1.30016
     86       0.00000          -0.047281           -1.28659
     87       0.00000          -0.038601           -1.05039
     88       0.00000          -0.026589           -0.72352
     89       0.00000          -0.021153           -0.57561
     90       0.00000          -0.016245           -0.44206
     91       0.00000          -0.011569           -0.31481
     92       0.00000          -0.006681           -0.18179
     93       0.00000          -0.003034           -0.08257
     94       0.00000           0.002001            0.05445
     95       0.00000           0.002472            0.06728
     96       0.00000           0.014719            0.40052
     97       0.00000           0.022553            0.61370
     98       0.00000           0.023778            0.64704
     99       0.00000           0.027037            0.73571
    100       0.00000           0.029022            0.78972
    101       0.00000           0.032784            0.89211
    102       0.00000           0.036914            1.00447
    103       0.00000           0.037696            1.02575
    104       0.00000           0.044933            1.22270
    105       0.00000           0.045679            1.24300
    106       0.00000           0.051778            1.40894
    107       0.00000           0.058478            1.59126
    108       0.00000           0.066091            1.79843
    109       0.00000           0.067766            1.84400
    110       0.00000           0.068722            1.87003
    111       0.00000           0.069791            1.89910
    112       0.00000           0.078280            2.13010
    113       0.00000           0.080796            2.19857
    114       0.00000           0.086865            2.36373
    115       0.00000           0.093610            2.54726
    116       0.00000           0.097166            2.64403
    117       0.00000           0.100479            2.73418
    118       0.00000           0.102642            2.79304
    119       0.00000           0.105465            2.86986
    120       0.00000           0.106561            2.89968
    121       0.00000           0.108688            2.95755
    122       0.00000           0.118264            3.21813
    123       0.00000           0.122186            3.32484
    124       0.00000           0.132178            3.59675
    125       0.00000           0.138395            3.76593
    126       0.00000           0.139874            3.80617
    127       0.00000           0.143270            3.89856
    128       0.00000           0.147775            4.02117
    129       0.00000           0.150033            4.08261
    130       0.00000           0.150732            4.10164
    131       0.00000           0.156386            4.25547
    132       0.00000           0.156740            4.26510
    133       0.00000           0.158607            4.31592
    134       0.00000           0.160669            4.37201
    135       0.00000           0.161463            4.39364
    136       0.00000           0.168075            4.57355
    137       0.00000           0.174250            4.74158
    138       0.00000           0.175287            4.76981
    139       0.00000           0.181604            4.94168
    140       0.00000           0.191189            5.20251
    141       0.00000           0.194589            5.29505
    142       0.00000           0.198507            5.40166
    143       0.00000           0.202837            5.51949
    144       0.00000           0.209531            5.70162
    145       0.00000           0.219971            5.98570
    146       0.00000           0.221394            6.02443
    147       0.00000           0.223125            6.07154
    148       0.00000           0.225246            6.12926
    149       0.00000           0.226034            6.15069
    150       0.00000           0.230814            6.28077
    151       0.00000           0.233911            6.36504
    152       0.00000           0.237605            6.46556
    153       0.00000           0.247625            6.73823
    154       0.00000           0.248379            6.75872
    155       0.00000           0.258127            7.02398
    156       0.00000           0.260024            7.07560

  Highest occupied state (VBM) at     -9.46840415 eV
  | Occupation number:      2.00000000

  Lowest unoccupied state (CBM) at    -7.10957250 eV
  | Occupation number:      0.00000000

  Overall HOMO-LUMO gap:      2.35883165 eV.
  Calculating total energy contributions from superposition of free atom densities.

  Total energy components:
  | Sum of eigenvalues            :        -511.99600809 Ha      -13932.12023869 eV
  | XC energy correction          :        -120.92294686 Ha       -3290.48080185 eV
  | XC potential correction       :         155.32283322 Ha        4226.54933636 eV
  | Free-atom electrostatic energy:        -368.67438919 Ha      -10032.14055953 eV
  | Hartree energy correction     :           0.00000000 Ha           0.00000000 eV
  | Entropy correction            :           0.00000000 Ha           0.00000000 eV
  | ---------------------------
  | Total energy                  :        -846.27051092 Ha      -23028.19226371 eV
  | Total energy, T -> 0          :        -846.27051092 Ha      -23028.19226371 eV  <-- do not rely on this value for anything but (periodic) metals
  | Electronic free energy        :        -846.27051092 Ha      -23028.19226371 eV

  Derived energy quantities:
  | Kinetic energy                :         838.71524056 Ha       22822.60289690 eV
  | Electrostatic energy          :       -1564.06280462 Ha      -42560.31435876 eV
  | Energy correction for multipole
  | error in Hartree potential    :           0.00000000 Ha           0.00000000 eV
  | Sum of eigenvalues per atom                           :        -409.76824231 eV
  | Total energy (T->0) per atom                          :        -677.29977246 eV  <-- do not rely on this value for anything but (periodic) metals
  | Electronic free energy per atom                       :        -677.29977246 eV
  Initialize hartree_potential_storage
  Max. number of atoms included in rho_multipole:           34

  End scf initialization - timings             :  max(cpu_time)    wall_clock(cpu1)
  | Time for scf. initialization               :        4.673 s           4.736 s
  | Boundary condition initialization          :        0.001 s           0.004 s
  | Integration                                :        3.563 s           3.570 s
  | Solution of K.-S. eqns.                    :        0.135 s           0.153 s
  | Grid partitioning                          :        0.484 s           0.487 s
  | Preloading free-atom quantities on grid    :        0.013 s           0.017 s
  | Free-atom superposition energy             :        0.039 s           0.040 s
  | Total energy evaluation                    :        0.001 s           0.005 s

  Partial memory accounting:
  | Current value for overall tracked memory usage on task 0  :           2.329 MB
  | Peak value for overall tracked memory usage on task 0     :          23.871 MB after allocating zora_vector2
  | Largest tracked array allocation on task 0 so far         :           7.039 MB  when allocating hamiltonian_shell
  Note:  These values currently only include a subset of arrays which are explicitly tracked.
  The "true" memory usage will be greater.
------------------------------------------------------------

------------------------------------------------------------
          Begin self-consistency iteration #    1

  Date     :  20210620, Time     :  161112.714
------------------------------------------------------------
  Evaluating new KS density.
  Integration grid: deviation in total charge (<rho> - N_e) =  -5.684342E-14
  Pulay mixing of updated and previous charge densities.

  Evaluating partitioned Hartree potential by multipole expansion.
  | Analytical far-field extrapolation by fixed multipoles:
  | Hartree multipole sum: apparent total charge =  -0.165668E-03
  Summing up the Hartree potential with load balancing.
  Time summed over all CPUs for potential: real work       13.623 s, elapsed       22.067 s
  | RMS charge density error from multipole expansion :   0.113279E-01

  Start compute_balanced_batch_distribution
  Done load balancing, time needed:      0.004 s
  Integrating Hamiltonian matrix: batch-based integration with load balancing
  Time summed over all CPUs for integration: real work       99.457 s, elapsed      117.229 s
  Time get_set_full_local_matrix_scalapack:     0.011976 s
  Start compute_balanced_batch_distribution
  Done load balancing, time needed:      0.004 s

  Updating Kohn-Sham eigenvalues and eigenvectors using ELSI and the ELPA eigensolver.
  Finished transformation to standard eigenproblem
  | Time :     0.009 s
  Starting ELPA eigensolver
  Finished solving standard eigenproblem
  | Time :     0.050 s
  Finished back-transformation of eigenvectors
  | Time :     0.002 s

  Obtaining occupation numbers and chemical potential using ELSI.
  | Chemical potential (Fermi level):    -3.87828247 eV
  Writing Kohn-Sham eigenvalues.

  State    Occupation    Eigenvalue [Ha]    Eigenvalue [eV]
      1       2.00000          -9.979161         -271.54677
      2       2.00000          -9.978423         -271.52672
      3       2.00000          -9.977242         -271.49456
      4       2.00000          -9.976154         -271.46497
      5       2.00000          -9.970359         -271.30726
      6       2.00000          -9.970253         -271.30440
      7       2.00000          -9.969502         -271.28394
      8       2.00000          -9.969443         -271.28235
      9       2.00000          -9.962741         -271.09997
     10       2.00000          -9.961752         -271.07307
     11       2.00000          -9.956234         -270.92292
     12       2.00000          -9.955974         -270.91583
     13       2.00000          -9.955601         -270.90568
     14       2.00000          -9.955546         -270.90420
     15       2.00000          -9.955394         -270.90006
     16       2.00000          -9.955189         -270.89447
     17       2.00000          -9.954099         -270.86481
     18       2.00000          -9.953827         -270.85742
     19       2.00000          -9.951235         -270.78689
     20       2.00000          -9.949984         -270.75285
     21       2.00000          -9.949724         -270.74577
     22       2.00000          -9.949257         -270.73305
     23       2.00000          -0.878676          -23.90999
     24       2.00000          -0.847920          -23.07307
     25       2.00000          -0.836365          -22.75864
     26       2.00000          -0.799799          -21.76365
     27       2.00000          -0.795447          -21.64523
     28       2.00000          -0.775725          -21.10854
     29       2.00000          -0.743204          -20.22361
     30       2.00000          -0.739707          -20.12845
     31       2.00000          -0.730965          -19.89056
     32       2.00000          -0.711130          -19.35082
     33       2.00000          -0.691584          -18.81897
     34       2.00000          -0.644467          -17.53684
     35       2.00000          -0.634074          -17.25404
     36       2.00000          -0.628564          -17.10410
     37       2.00000          -0.622225          -16.93160
     38       2.00000          -0.607271          -16.52469
     39       2.00000          -0.561277          -15.27313
     40       2.00000          -0.552070          -15.02259
     41       2.00000          -0.547281          -14.89228
     42       2.00000          -0.543226          -14.78193
     43       2.00000          -0.519067          -14.12452
     44       2.00000          -0.501866          -13.65646
     45       2.00000          -0.484716          -13.18978
     46       2.00000          -0.484342          -13.17962
     47       2.00000          -0.468811          -12.75699
     48       2.00000          -0.467955          -12.73369
     49       2.00000          -0.454668          -12.37214
     50       2.00000          -0.439170          -11.95042
     51       2.00000          -0.436998          -11.89133
     52       2.00000          -0.430913          -11.72575
     53       2.00000          -0.424282          -11.54530
     54       2.00000          -0.424132          -11.54122
     55       2.00000          -0.423166          -11.51493
     56       2.00000          -0.401221          -10.91777
     57       2.00000          -0.394795          -10.74291
     58       2.00000          -0.389359          -10.59499
     59       2.00000          -0.383717          -10.44146
     60       2.00000          -0.378894          -10.31022
     61       2.00000          -0.377974          -10.28519
     62       2.00000          -0.377376          -10.26893
     63       2.00000          -0.343033           -9.33441
     64       2.00000          -0.340034           -9.25279
     65       2.00000          -0.336632           -9.16022
     66       2.00000          -0.333409           -9.07252
     67       2.00000          -0.311002           -8.46280
     68       2.00000          -0.282131           -7.67716
     69       2.00000          -0.275391           -7.49378
     70       2.00000          -0.271662           -7.39229
     71       2.00000          -0.245278           -6.67436
     72       2.00000          -0.223048           -6.06945
     73       0.00000          -0.139118           -3.78560
     74       0.00000          -0.116774           -3.17757
     75       0.00000          -0.094346           -2.56728
     76       0.00000          -0.086379           -2.35048
     77       0.00000          -0.084190           -2.29092
     78       0.00000          -0.042562           -1.15816
     79       0.00000          -0.027804           -0.75659
     80       0.00000          -0.021254           -0.57835
     81       0.00000          -0.018448           -0.50199
     82       0.00000          -0.014819           -0.40325
     83       0.00000          -0.011846           -0.32235
     84       0.00000          -0.005662           -0.15408
     85       0.00000          -0.003605           -0.09808
     86       0.00000           0.012440            0.33852
     87       0.00000           0.013804            0.37562
     88       0.00000           0.032588            0.88677
     89       0.00000           0.036985            1.00640
     90       0.00000           0.052973            1.44147
     91       0.00000           0.055620            1.51350
     92       0.00000           0.061262            1.66702
     93       0.00000           0.070613            1.92148
     94       0.00000           0.071734            1.95198
     95       0.00000           0.074752            2.03410
     96       0.00000           0.075594            2.05703
     97       0.00000           0.093981            2.55736
     98       0.00000           0.095771            2.60607
     99       0.00000           0.097355            2.64916
    100       0.00000           0.101715            2.76781
    101       0.00000           0.111822            3.04283
    102       0.00000           0.112920            3.07272
    103       0.00000           0.113254            3.08178
    104       0.00000           0.118155            3.21515
    105       0.00000           0.134005            3.64645
    106       0.00000           0.137532            3.74243
    107       0.00000           0.137832            3.75061
    108       0.00000           0.139104            3.78523
    109       0.00000           0.141713            3.85619
    110       0.00000           0.147059            4.00169
    111       0.00000           0.147237            4.00652
    112       0.00000           0.148169            4.03187
    113       0.00000           0.155513            4.23171
    114       0.00000           0.155708            4.23703
    115       0.00000           0.157212            4.27795
    116       0.00000           0.158828            4.32194
    117       0.00000           0.169874            4.62251
    118       0.00000           0.173227            4.71375
    119       0.00000           0.177511            4.83031
    120       0.00000           0.178793            4.86519
    121       0.00000           0.184160            5.01125
    122       0.00000           0.191583            5.21325
    123       0.00000           0.193607            5.26830
    124       0.00000           0.201547            5.48438
    125       0.00000           0.205437            5.59024
    126       0.00000           0.206325            5.61438
    127       0.00000           0.206373            5.61570
    128       0.00000           0.207965            5.65900
    129       0.00000           0.216105            5.88051
    130       0.00000           0.220728            6.00633
    131       0.00000           0.222003            6.04101
    132       0.00000           0.224864            6.11886
    133       0.00000           0.229721            6.25103
    134       0.00000           0.234329            6.37641
    135       0.00000           0.240046            6.53199
    136       0.00000           0.244441            6.65158
    137       0.00000           0.250091            6.80531
    138       0.00000           0.251788            6.85150
    139       0.00000           0.252631            6.87444
    140       0.00000           0.253691            6.90329
    141       0.00000           0.256333            6.97519
    142       0.00000           0.266370            7.24831
    143       0.00000           0.268097            7.29529
    144       0.00000           0.286485            7.79564
    145       0.00000           0.287629            7.82678
    146       0.00000           0.289232            7.87040
    147       0.00000           0.291346            7.92792
    148       0.00000           0.309281            8.41597
    149       0.00000           0.312824            8.51236
    150       0.00000           0.313151            8.52127
    151       0.00000           0.317138            8.62977
    152       0.00000           0.321501            8.74848
    153       0.00000           0.321998            8.76202
    154       0.00000           0.327230            8.90437
    155       0.00000           0.338639            9.21483
    156       0.00000           0.341245            9.28574

  Highest occupied state (VBM) at     -6.06945475 eV
  | Occupation number:      2.00000000

  Lowest unoccupied state (CBM) at    -3.78559989 eV
  | Occupation number:      0.00000000

  Overall HOMO-LUMO gap:      2.28385486 eV.

  Total energy components:
  | Sum of eigenvalues            :        -489.34622393 Ha      -13315.78825306 eV
  | XC energy correction          :        -122.39505482 Ha       -3330.53889774 eV
  | XC potential correction       :         157.23454360 Ha        4278.56962265 eV
  | Free-atom electrostatic energy:        -368.67438919 Ha      -10032.14055953 eV
  | Hartree energy correction     :         -22.38608685 Ha        -609.15641670 eV
  | Entropy correction            :           0.00000000 Ha           0.00000000 eV
  | ---------------------------
  | Total energy                  :        -845.56721119 Ha      -23009.05450438 eV
  | Total energy, T -> 0          :        -845.56721119 Ha      -23009.05450438 eV  <-- do not rely on this value for anything but (periodic) metals
  | Electronic free energy        :        -845.56721119 Ha      -23009.05450438 eV

  Derived energy quantities:
  | Kinetic energy                :         845.16670447 Ha       22998.15616192 eV
  | Electrostatic energy          :       -1568.33886084 Ha      -42676.67176857 eV
  | Energy correction for multipole
  | error in Hartree potential    :          -0.05373503 Ha          -1.46220460 eV
  | Sum of eigenvalues per atom                           :        -391.64083097 eV
  | Total energy (T->0) per atom                          :        -676.73689719 eV  <-- do not rely on this value for anything but (periodic) metals
  | Electronic free energy per atom                       :        -676.73689719 eV

  Self-consistency convergence accuracy:
  | Change of charge density      :  0.9092E+00
  | Change of sum of eigenvalues  :  0.6163E+03 eV
  | Change of total energy        :  0.1914E+02 eV

  End self-consistency iteration #     1       :  max(cpu_time)    wall_clock(cpu1)
  | Time for this iteration                    :        3.307 s           3.313 s
  | Charge density update                      :        0.694 s           0.695 s
  | Density mixing                             :        0.002 s           0.003 s
  | Hartree multipole update                   :        0.008 s           0.008 s
  | Hartree multipole summation                :        0.401 s           0.404 s
  | Integration                                :        2.097 s           2.097 s
  | Solution of K.-S. eqns.                    :        0.091 s           0.091 s
  | Total energy evaluation                    :        0.001 s           0.001 s

  Partial memory accounting:
  | Current value for overall tracked memory usage on task 0  :           2.329 MB
  | Peak value for overall tracked memory usage on task 0     :          24.462 MB after allocating zora_vector2
  | Largest tracked array allocation on task 0 so far         :           7.039 MB  when allocating hamiltonian_shell
  Note:  These values currently only include a subset of arrays which are explicitly tracked.
  The "true" memory usage will be greater.
------------------------------------------------------------

------------------------------------------------------------
          Begin self-consistency iteration #    2

  Date     :  20210620, Time     :  161116.029
------------------------------------------------------------
  Evaluating new KS density.
  Integration grid: deviation in total charge (<rho> - N_e) =   5.684342E-14
  Pulay mixing of updated and previous charge densities.

  Evaluating partitioned Hartree potential by multipole expansion.
  | Analytical far-field extrapolation by fixed multipoles:
  | Hartree multipole sum: apparent total charge =  -0.166174E-03
  Summing up the Hartree potential with load balancing.
  Time summed over all CPUs for potential: real work       13.682 s, elapsed       16.214 s
  | RMS charge density error from multipole expansion :   0.202787E-01

  Integrating Hamiltonian matrix: batch-based integration with load balancing
  Time summed over all CPUs for integration: real work      100.229 s, elapsed      105.831 s
  Time get_set_full_local_matrix_scalapack:     0.015480 s

  Updating Kohn-Sham eigenvalues and eigenvectors using ELSI and the ELPA eigensolver.
  Finished transformation to standard eigenproblem
  | Time :     0.007 s
  Starting ELPA eigensolver
  Finished solving standard eigenproblem
  | Time :     0.050 s
  Finished back-transformation of eigenvectors
  | Time :     0.003 s

  Obtaining occupation numbers and chemical potential using ELSI.
  | Chemical potential (Fermi level):    -2.95533092 eV
  Highest occupied state (VBM) at     -4.95930296 eV
  | Occupation number:      2.00000000

  Lowest unoccupied state (CBM) at    -2.67637829 eV
  | Occupation number:      0.00000000

  Overall HOMO-LUMO gap:      2.28292468 eV.

  Checking to see if s.c.f. parameters should be adjusted.

  Total energy components:
  | Sum of eigenvalues            :        -481.54333070 Ha      -13103.46072496 eV
  | XC energy correction          :        -123.08454475 Ha       -3349.30087326 eV
  | XC potential correction       :         158.12234081 Ha        4302.72781392 eV
  | Free-atom electrostatic energy:        -368.67438919 Ha      -10032.14055953 eV
  | Hartree energy correction     :         -30.29218264 Ha        -824.29222906 eV
  | Entropy correction            :           0.00000000 Ha           0.00000000 eV
  | ---------------------------
  | Total energy                  :        -845.47210646 Ha      -23006.46657290 eV
  | Total energy, T -> 0          :        -845.47210646 Ha      -23006.46657290 eV  <-- do not rely on this value for anything but (periodic) metals
  | Electronic free energy        :        -845.47210646 Ha      -23006.46657290 eV

  Derived energy quantities:
  | Kinetic energy                :         845.13182700 Ha       22997.20709769 eV
  | Electrostatic energy          :       -1567.51938871 Ha      -42654.37279732 eV
  | Energy correction for multipole
  | error in Hartree potential    :          -0.08969847 Ha          -2.44081964 eV
  | Sum of eigenvalues per atom                           :        -385.39590368 eV
  | Total energy (T->0) per atom                          :        -676.66078156 eV  <-- do not rely on this value for anything but (periodic) metals
  | Electronic free energy per atom                       :        -676.66078156 eV

  Self-consistency convergence accuracy:
  | Change of charge density      :  0.4474E+00
  | Change of sum of eigenvalues  :  0.2123E+03 eV
  | Change of total energy        :  0.2588E+01 eV

  End self-consistency iteration #     2       :  max(cpu_time)    wall_clock(cpu1)
  | Time for this iteration                    :        2.982 s           2.984 s
  | Charge density update                      :        0.692 s           0.691 s
  | Density mixing                             :        0.003 s           0.004 s
  | Hartree multipole update                   :        0.007 s           0.008 s
  | Hartree multipole summation                :        0.292 s           0.291 s
  | Integration                                :        1.893 s           1.893 s
  | Solution of K.-S. eqns.                    :        0.089 s           0.089 s
  | Total energy evaluation                    :        0.003 s           0.004 s

  Partial memory accounting:
  | Current value for overall tracked memory usage on task 0  :           2.329 MB
  | Peak value for overall tracked memory usage on task 0     :          24.528 MB after allocating zora_vector2
  | Largest tracked array allocation on task 0 so far         :           7.039 MB  when allocating hamiltonian_shell
  Note:  These values currently only include a subset of arrays which are explicitly tracked.
  The "true" memory usage will be greater.
------------------------------------------------------------

------------------------------------------------------------
          Begin self-consistency iteration #    3

  Date     :  20210620, Time     :  161119.016
------------------------------------------------------------
  Evaluating new KS density.
  Integration grid: deviation in total charge (<rho> - N_e) =   1.989520E-13
  Pulay mixing of updated and previous charge densities.

  Evaluating partitioned Hartree potential by multipole expansion.
  | Analytical far-field extrapolation by fixed multipoles:
  | Hartree multipole sum: apparent total charge =  -0.165603E-03
  Summing up the Hartree potential with load balancing.
  Time summed over all CPUs for potential: real work       13.676 s, elapsed       16.216 s
  | RMS charge density error from multipole expansion :   0.239165E-01

  Integrating Hamiltonian matrix: batch-based integration with load balancing
  Time summed over all CPUs for integration: real work      100.466 s, elapsed      106.114 s
  Time get_set_full_local_matrix_scalapack:     0.015578 s

  Updating Kohn-Sham eigenvalues and eigenvectors using ELSI and the ELPA eigensolver.
  Finished transformation to standard eigenproblem
  | Time :     0.007 s
  Starting ELPA eigensolver
  Finished solving standard eigenproblem
  | Time :     0.050 s
  Finished back-transformation of eigenvectors
  | Time :     0.003 s

  Obtaining occupation numbers and chemical potential using ELSI.
  | Chemical potential (Fermi level):    -2.89673408 eV
  Highest occupied state (VBM) at     -4.94959375 eV
  | Occupation number:      2.00000000

  Lowest unoccupied state (CBM) at    -2.66115066 eV
  | Occupation number:      0.00000000

  Overall HOMO-LUMO gap:      2.28844309 eV.

  Total energy components:
  | Sum of eigenvalues            :        -481.43472771 Ha      -13100.50548737 eV
  | XC energy correction          :        -123.11857087 Ha       -3350.22677097 eV
  | XC potential correction       :         158.16208753 Ha        4303.80937715 eV
  | Free-atom electrostatic energy:        -368.67438919 Ha      -10032.14055953 eV
  | Hartree energy correction     :         -30.40314932 Ha        -827.31178628 eV
  | Entropy correction            :           0.00000000 Ha           0.00000000 eV
  | ---------------------------
[...]
  |   Solver requested          :                  ELPA
  |   Number of ELSI calls      :                    17
  |
  |------------------------------------------------------
  | ELSI Project (c)  elsi-interchange.org
  |------------------------------------------------------

------------------------------------------------------------
          Post-processing: scaled ZORA corrections to eigenvalues and total energy.

  Date     :  20210620, Time     :  161200.886
------------------------------------------------------------
  Computing correction matrix for scaled ZORA eigenvalues.
  Evaluating scaled zora correction for each Kohn-Sham eigenstate.
  Evaluating scaled zora correction for each Kohn-Sham eigenstate.
  Time get_set_sparse_local_matrix_scalapack:     2.546160 s
  Writing Kohn-Sham eigenvalues.

  State    Occupation    Eigenvalue [Ha]    Eigenvalue [eV]
      1       2.00000          -9.911174         -269.69675
      2       2.00000          -9.910757         -269.68542
      3       2.00000          -9.909993         -269.66462
      4       2.00000          -9.909382         -269.64801
      5       2.00000          -9.907170         -269.58780
      6       2.00000          -9.907099         -269.58589
      7       2.00000          -9.906911         -269.58077
      8       2.00000          -9.906855         -269.57923
      9       2.00000          -9.904650         -269.51923
     10       2.00000          -9.904112         -269.50460
     11       2.00000          -9.901542         -269.43468
     12       2.00000          -9.901407         -269.43100
     13       2.00000          -9.900955         -269.41870
     14       2.00000          -9.900910         -269.41746
     15       2.00000          -9.900450         -269.40496
     16       2.00000          -9.900086         -269.39505
     17       2.00000          -9.899776         -269.38662
     18       2.00000          -9.899706         -269.38472
     19       2.00000          -9.898950         -269.36413
     20       2.00000          -9.898591         -269.35436
     21       2.00000          -9.898508         -269.35210
     22       2.00000          -9.898046         -269.33953
     23       2.00000          -0.828733          -22.55097
     24       2.00000          -0.798701          -21.73375
     25       2.00000          -0.784358          -21.34347
     26       2.00000          -0.747445          -20.33902
     27       2.00000          -0.743298          -20.22618
     28       2.00000          -0.721824          -19.64184
     29       2.00000          -0.689429          -18.76031
     30       2.00000          -0.684813          -18.63472
     31       2.00000          -0.676993          -18.42190
     32       2.00000          -0.655714          -17.84289
     33       2.00000          -0.635346          -17.28864
     34       2.00000          -0.587770          -15.99402
     35       2.00000          -0.577553          -15.71603
     36       2.00000          -0.573330          -15.60110
     37       2.00000          -0.564707          -15.36646
     38       2.00000          -0.549364          -14.94895
     39       2.00000          -0.502655          -13.67793
     40       2.00000          -0.494249          -13.44919
     41       2.00000          -0.488914          -13.30403
     42       2.00000          -0.485060          -13.19914
     43       2.00000          -0.460440          -12.52921
     44       2.00000          -0.441797          -12.02190
     45       2.00000          -0.426511          -11.60596
     46       2.00000          -0.425323          -11.57362
     47       2.00000          -0.407912          -11.09985
     48       2.00000          -0.407592          -11.09113
     49       2.00000          -0.395564          -10.76384
     50       2.00000          -0.387580          -10.54660
     51       2.00000          -0.380522          -10.35454
     52       2.00000          -0.378293          -10.29387
     53       2.00000          -0.372144          -10.12654
     54       2.00000          -0.362936           -9.87599
     55       2.00000          -0.362458           -9.86297
     56       2.00000          -0.352842           -9.60132
     57       2.00000          -0.338917           -9.22241
     58       2.00000          -0.338517           -9.21152
     59       2.00000          -0.333497           -9.07492
     60       2.00000          -0.322932           -8.78743
     61       2.00000          -0.318789           -8.67468
     62       2.00000          -0.316932           -8.62415
     63       2.00000          -0.297119           -8.08502
     64       2.00000          -0.295066           -8.02915
     65       2.00000          -0.281575           -7.66203
     66       2.00000          -0.279900           -7.61647
     67       2.00000          -0.270947           -7.37285
     68       2.00000          -0.242431           -6.59687
     69       2.00000          -0.234859           -6.39085
     70       2.00000          -0.232289           -6.32090
     71       2.00000          -0.204471           -5.56395
     72       2.00000          -0.181628           -4.94234
     73       0.00000          -0.097573           -2.65509
     74       0.00000          -0.074707           -2.03287
     75       0.00000          -0.054472           -1.48226
     76       0.00000          -0.044762           -1.21805
     77       0.00000          -0.044099           -1.20000
     78       0.00000          -0.005446           -0.14819
     79       0.00000           0.000098            0.00268
     80       0.00000           0.001022            0.02782
     81       0.00000           0.002474            0.06733
     82       0.00000           0.015666            0.42630
     83       0.00000           0.017481            0.47568
     84       0.00000           0.025150            0.68438
     85       0.00000           0.030018            0.81684
     86       0.00000           0.034402            0.93613
     87       0.00000           0.034854            0.94842
     88       0.00000           0.055372            1.50675
     89       0.00000           0.059026            1.60619
     90       0.00000           0.078673            2.14080
     91       0.00000           0.084544            2.30057
     92       0.00000           0.092319            2.51213
     93       0.00000           0.093750            2.55108
     94       0.00000           0.097404            2.65051
     95       0.00000           0.100058            2.72273
     96       0.00000           0.102568            2.79101
     97       0.00000           0.113338            3.08408
     98       0.00000           0.122205            3.32537
     99       0.00000           0.128139            3.48683
    100       0.00000           0.128992            3.51005
    101       0.00000           0.132050            3.59326
    102       0.00000           0.132527            3.60625
    103       0.00000           0.140804            3.83147
    104       0.00000           0.149868            4.07810
    105       0.00000           0.160218            4.35977
    106       0.00000           0.166318            4.52573
    107       0.00000           0.168033            4.57242
    108       0.00000           0.170272            4.63335
    109       0.00000           0.173754            4.72809
    110       0.00000           0.176106            4.79208
    111       0.00000           0.180348            4.90753
    112       0.00000           0.181020            4.92579
    113       0.00000           0.189371            5.15306
    114       0.00000           0.189811            5.16502
    115       0.00000           0.194450            5.29124
    116       0.00000           0.194743            5.29923
    117       0.00000           0.202118            5.49991
    118       0.00000           0.202385            5.50717
    119       0.00000           0.207276            5.64027
    120       0.00000           0.208083            5.66223
    121       0.00000           0.214778            5.84440
    122       0.00000           0.223638            6.08549
    123       0.00000           0.230525            6.27291
    124       0.00000           0.231903            6.31040
    125       0.00000           0.234215            6.37330
    126       0.00000           0.236083            6.42414
    127       0.00000           0.239811            6.52559
    128       0.00000           0.241628            6.57504
    129       0.00000           0.245753            6.68729
    130       0.00000           0.249914            6.80052
    131       0.00000           0.256018            6.96660
    132       0.00000           0.258177            7.02536
    133       0.00000           0.260295            7.08297
    134       0.00000           0.263436            7.16846
    135       0.00000           0.270929            7.37235
    136       0.00000           0.274110            7.45890
    137       0.00000           0.277135            7.54123
    138       0.00000           0.279500            7.60558
    139       0.00000           0.284120            7.73130
    140       0.00000           0.290393            7.90200
    141       0.00000           0.290940            7.91687
    142       0.00000           0.302265            8.22505
    143       0.00000           0.307607            8.37041
    144       0.00000           0.312157            8.49422
    145       0.00000           0.313117            8.52035
    146       0.00000           0.314787            8.56580
    147       0.00000           0.323623            8.80622
    148       0.00000           0.336354            9.15265
    149       0.00000           0.341149            9.28315
    150       0.00000           0.342350            9.31583
    151       0.00000           0.347976            9.46891
    152       0.00000           0.349156            9.50103
    153       0.00000           0.354003            9.63290
    154       0.00000           0.361583            9.83917
    155       0.00000           0.361735            9.84331
    156       0.00000           0.376616           10.24825

  Highest occupied state (VBM) at     -4.94234047 eV
  | Occupation number:      2.00000000

  Lowest unoccupied state (CBM) at    -2.65508718 eV
  | Occupation number:      0.00000000

  Overall HOMO-LUMO gap:      2.28725329 eV.

  Total energy components:
  | Sum of eigenvalues            :        -481.43813182 Ha      -13100.59811802 eV
  | XC energy correction          :        -123.07346753 Ha       -3348.99944672 eV
  | XC potential correction       :         158.10317869 Ha        4302.20638595 eV
  | Free-atom electrostatic energy:        -368.67438919 Ha      -10032.14055953 eV
  | Hartree energy correction     :         -30.19824106 Ha        -821.73594878 eV
  | Entropy correction            :           0.00000000 Ha           0.00000000 eV
  | ---------------------------
  | Total energy                  :        -845.28105092 Ha      -23001.26768711 eV
  | Total energy, T -> 0          :        -845.28105092 Ha      -23001.26768711 eV  <-- do not rely on this value for anything but (periodic) metals
  | Electronic free energy        :        -845.28105092 Ha      -23001.26768711 eV

  Derived energy quantities:
  | Kinetic energy                :         842.80461357 Ha       22933.88039822 eV
  | Electrostatic energy          :       -1565.01219696 Ha      -42586.14863861 eV
  | Energy correction for multipole
  | error in Hartree potential    :          -0.10268133 Ha          -2.79410109 eV
  | Sum of eigenvalues per atom                           :        -385.31170935 eV
  | Total energy (T->0) per atom                          :        -676.50787315 eV  <-- do not rely on this value for anything but (periodic) metals
  | Electronic free energy per atom                       :        -676.50787315 eV
  End evaluation of scaled ZORA corrections.
  | Time for scaled ZORA corrections           :        3.338 s           3.347 s
------------------------------------------------------------

  Energy and forces in a compact form:
  | Total energy uncorrected      :         -0.230012676871110E+05 eV
  | Total energy corrected        :         -0.230012676871110E+05 eV  <-- do not rely on this value for anything but (periodic) metals
  | Electronic free energy        :         -0.230012676871110E+05 eV

  ------------------------------------ 
  Start decomposition of the XC Energy 
  ------------------------------------ 
  X and C from original XC functional choice 
  Hartree-Fock Energy :          0.000000000 Ha              0.000000000 eV
  X Energy            :       -118.231628295 Ha          -3217.246297589 eV
  C Energy            :         -4.841839236 Ha           -131.753149133 eV
  Total XC Energy     :       -123.073467531 Ha          -3348.999446723 eV
  ------------------------------------ 
  LDA X and C from self-consistent density 
  X Energy LDA        :       -107.090816493 Ha          -2914.089384005 eV
  C Energy LDA        :         -9.318733159 Ha           -253.575631048 eV
  ------------------------------------ 
  End decomposition of the XC Energy 
  ------------------------------------ 

------------------------------------------------------------

------------------------------------------------------------------------------
  Final output of selected total energy values:

  The following output summarizes some interesting total energy values
  at the end of a run (AFTER all relaxation, molecular dynamics, etc.).

  | Total energy of the DFT / Hartree-Fock s.c.f. calculation      :         -23001.267687111 eV
  | Final zero-broadening corrected energy (caution - metals only) :         -23001.267687111 eV
  | For reference only, the value of 1 Hartree used in FHI-aims is :             27.211384500 eV

  Before relying on these values, please be sure to understand exactly which
  total energy value is referred to by a given number. Different objects may
  all carry the same name 'total energy'. Definitions:

  Total energy of the DFT / Hartree-Fock s.c.f. calculation:
  | Note that this energy does not include ANY quantities calculated after the
  | s.c.f. cycle, in particular not ANY RPA, MP2, etc. many-body perturbation terms.
  | Scalar relativistic effects have been included in the 'scaled ZORA' approximation.

  Final zero-broadening corrected energy:
  | For metallic systems only, a broadening of the occupation numbers at the Fermi
  | level can be extrapolated back to zero broadening by an electron-gas inspired
  | formula. For all systems that are not real metals, this value can be
  | meaningless and should be avoided.

------------------------------------------------------------------------------
  Methods described in the following list of references were used in this FHI-aims run.
  If you publish the results, please make sure to cite these reference if they apply.
  FHI-aims is an academic code, and for our developers (often, Ph.D. students
  and postdocs), scientific credit in the community is essential.
  Thank you for helping us!

  For any use of FHI-aims, please cite:

    Volker Blum, Ralf Gehrke, Felix Hanke, Paula Havu, Ville Havu,
    Xinguo Ren, Karsten Reuter, and Matthias Scheffler
    'Ab initio molecular simulations with numeric atom-centered orbitals'
    Computer Physics Communications 180, 2175-2196 (2009)
    http://dx.doi.org/10.1016/j.cpc.2009.06.022


  The scalable eigensolver library ELPA was used in your run.
  ELPA is essential especially for large systems on hundreds or thousands of CPUs.
  For ELPA, please cite:

    Andreas Marek, Volker Blum, Rainer Johanni, Ville Havu, Bruno Lang,
    Thomas Auckenthaler, Alexander Heinecke, Hans-Joachim Bungartz, and Hermann Lederer,
    'The ELPA Library - Scalable Parallel Eigenvalue Solutions
    for Electronic Structure Theory and Computational Science'
    The Journal of Physics: Condensed Matter 26, 213201 (2014).
    http://dx.doi.org/10.1088/0953-8984/26/21/213201


  The ELSI infrastructure was used in your run to solve the Kohn-Sham electronic structure.
  Please check out http://elsi-interchange.org to learn more.
  If scalability is important for your project, please acknowledge ELSI by citing:

    V. W-z. Yu, F. Corsetti, A. Garcia, W. P. Huhn, M. Jacquelin, W. Jia,
    B. Lange, L. Lin, J. Lu, W. Mi, A. Seifitokaldani, A. Vazquez-Mayagoitia,
    C. Yang, H. Yang, and V. Blum
    'ELSI: A unified software interface for Kohn-Sham electronic structure solvers'
    Computer Physics Communications 222, 267-285 (2018).
    http://dx.doi.org/10.1016/j.cpc.2017.09.007


  For the real-space grid partitioning and parallelization used in this calculation, please cite:

    Ville Havu, Volker Blum, Paula Havu, and Matthias Scheffler,
    'Efficient O(N) integration for all-electron electronic structure calculation'
    'using numerically tabulated basis functions'
    Journal of Computational Physics 228, 8367-8379 (2009).
    http://dx.doi.org/10.1016/j.jcp.2009.08.008

  Of course, there are many other important community references, e.g., those cited in the
  above references. Our list is limited to references that describe implementations in the
  FHI-aims code. The reason is purely practical (length of this list) - please credit others as well.

------------------------------------------------------------
          Leaving FHI-aims.
          Date     :  20210620, Time     :  161204.283

          Computational steps:
          | Number of self-consistency cycles          :           16
          | Number of SCF (re)initializations          :            1

          Detailed time accounting                     :  max(cpu_time)    wall_clock(cpu1)
          | Total time                                 :       56.490 s          56.672 s
          | Preparation time                           :        0.186 s           0.173 s
          | Boundary condition initalization           :        0.001 s           0.004 s
          | Grid partitioning                          :        0.484 s           0.487 s
          | Preloading free-atom quantities on grid    :        0.013 s           0.017 s
          | Free-atom superposition energy             :        0.039 s           0.040 s
          | Total time for integrations                :       34.118 s          34.123 s
          | Total time for solution of K.-S. equations :        1.545 s           1.572 s
          | Total time for density update              :       11.118 s          11.082 s
          | Total time for mixing                      :        0.085 s           0.088 s
          | Total time for Hartree multipole update    :        0.113 s           0.120 s
          | Total time for Hartree multipole sum       :        4.772 s           4.776 s
          | Total time for total energy evaluation     :        0.008 s           0.033 s
          | Total time for scaled ZORA corrections     :        3.338 s           3.347 s

          Partial memory accounting:
          | Residual value for overall tracked memory usage across tasks :     0.000000 MB (should be 0.000000 MB)
          | Peak values for overall tracked memory usage (after allocating zora_vector2):
          |   Minimum:       24.220 MB (on task  8)
          |   Maximum:       28.429 MB (on task 27)
          |   Average:       26.310 MB
          | Largest tracked array allocation (hamiltonian_shell):
          |   Minimum:        7.039 MB (on task  1)
          |   Maximum:        7.039 MB (on task  1)
          |   Average:        7.039 MB
          Note:  These values currently only include a subset of arrays which are explicitly tracked.
          The "true" memory usage will be greater.

          Have a nice day.
------------------------------------------------------------
